<?xml version="1.0"?>
<VTKFile type="UnstructuredGrid" version="0.1" byte_order="LittleEndian">
  <UnstructuredGrid>
    <Piece NumberOfPoints="16" NumberOfCells="9">
      <Points>
        <DataArray type="Float64" NumberOfComponents="3" format="ascii">
          0.00000000e+00 0.00000000e+00 0.00000000e+00 
1.66666672e-01 0.00000000e+00 0.00000000e+00 
3.33333343e-01 0.00000000e+00 0.00000000e+00 
5.00000000e-01 0.00000000e+00 0.00000000e+00 
1.66666672e-01 3.33333343e-01 0.00000000e+00 
2.77777791e-01 3.33333343e-01 0.00000000e+00 
3.88888896e-01 3.33333343e-01 0.00000000e+00 
5.00000000e-01 3.33333343e-01 0.00000000e+00 
3.33333343e-01 6.66666687e-01 0.00000000e+00 
3.88888896e-01 6.66666687e-01 0.00000000e+00 
4.44444448e-01 6.66666687e-01 0.00000000e+00 
5.00000000e-01 6.66666687e-01 0.00000000e+00 
5.00000000e-01 1.00000000e+00 0.00000000e+00 
5.00000000e-01 1.00000000e+00 0.00000000e+00 
5.00000000e-01 1.00000000e+00 0.00000000e+00 
5.00000000e-01 1.00000000e+00 0.00000000e+00 

        </DataArray>
      </Points>
      <Cells>
        <DataArray type="Int32" Name="connectivity" format="ascii">
0 1 5 4
4 5 9 8
8 9 13 12
1 2 6 5
5 6 10 9
9 10 14 13
2 3 7 6
6 7 11 10
10 11 15 14

        </DataArray>
        <DataArray type="Int32" Name="offsets" format="ascii">
4 8 12 16 20 24 28 32 36 
        </DataArray>
        <DataArray type="UInt8" Name="types" format="ascii">
9 9 9 9 9 9 9 9 9 
        </DataArray>
      </Cells>
      <PointData>
        <DataArray type="Float64" Name="u">
          0.00000000e+00 0.00000000e+00 0.00000000e+00 0.00000000e+00 9.10957727e+01 8.75448871e+01 8.13895829e+01 7.26298600e+01 1.54708258e+02 1.58200110e+02 1.60389751e+02 1.61277184e+02 1.99650322e+02 1.99650322e+02 1.99650322e+02 1.99650322e+02 
        </DataArray>
        <DataArray type="Float64" Name="v">
          0.00000000e+00 0.00000000e+00 0.00000000e+00 0.00000000e+00 9.40396595e+00 5.24905350e+00 1.78558841e+01 4.72244577e+01 7.51708979e+00 9.86258592e+00 2.05889536e+01 3.96961927e+01 2.06187542e+01 2.06187542e+01 2.06187542e+01 2.06187542e+01 
        </DataArray>
        <DataArray type="Float64" Name="p">
          5.19888799e+04 5.14832705e+04 5.09776611e+04 5.04720518e+04 5.03629504e+04 5.00258775e+04 4.96888046e+04 4.93517316e+04 4.87370209e+04 4.85684845e+04 4.83999480e+04 4.82314115e+04 4.71110914e+04 4.71110914e+04 4.71110914e+04 4.71110914e+04 
        </DataArray>
      </PointData>
    </Piece>
    <Piece NumberOfPoints="16" NumberOfCells="9">
      <Points>
        <DataArray type="Float64" NumberOfComponents="3" format="ascii">
          0.00000000e+00 1.00000000e+00 0.00000000e+00 
0.00000000e+00 6.66666687e-01 0.00000000e+00 
0.00000000e+00 3.33333343e-01 0.00000000e+00 
0.00000000e+00 0.00000000e+00 0.00000000e+00 
1.66666672e-01 1.00000000e+00 0.00000000e+00 
1.66666672e-01 7.77777791e-01 0.00000000e+00 
1.66666672e-01 5.55555582e-01 0.00000000e+00 
1.66666672e-01 3.33333343e-01 0.00000000e+00 
3.33333343e-01 1.00000000e+00 0.00000000e+00 
3.33333343e-01 8.88888896e-01 0.00000000e+00 
3.33333343e-01 7.77777791e-01 0.00000000e+00 
3.33333343e-01 6.66666687e-01 0.00000000e+00 
5.00000000e-01 1.00000000e+00 0.00000000e+00 
5.00000000e-01 1.00000000e+00 0.00000000e+00 
5.00000000e-01 1.00000000e+00 0.00000000e+00 
5.00000000e-01 1.00000000e+00 0.00000000e+00 

        </DataArray>
      </Points>
      <Cells>
        <DataArray type="Int32" Name="connectivity" format="ascii">
0 1 5 4
4 5 9 8
8 9 13 12
1 2 6 5
5 6 10 9
9 10 14 13
2 3 7 6
6 7 11 10
10 11 15 14

        </DataArray>
        <DataArray type="Int32" Name="offsets" format="ascii">
4 8 12 16 20 24 28 32 36 
        </DataArray>
        <DataArray type="UInt8" Name="types" format="ascii">
9 9 9 9 9 9 9 9 9 
        </DataArray>
      </Cells>
      <PointData>
        <DataArray type="Float64" Name="u">
          2.00000000e+02 1.55555556e+02 8.88888889e+01 0.00000000e+00 2.01421329e+02 1.72516852e+02 1.35741667e+02 9.10957727e+01 2.01984965e+02 1.87692281e+02 1.71933379e+02 1.54708258e+02 1.99650322e+02 1.99650322e+02 1.99650322e+02 1.99650322e+02 
        </DataArray>
        <DataArray type="Float64" Name="v">
          0.00000000e+00 0.00000000e+00 0.00000000e+00 0.00000000e+00 4.31238877e+00 3.95782692e+00 5.65501932e+00 9.40396595e+00 1.01226125e+01 8.22822783e+00 7.35972025e+00 7.51708979e+00 2.06187542e+01 2.06187542e+01 2.06187542e+01 2.06187542e+01 
        </DataArray>
        <DataArray type="Float64" Name="p">
          4.80718068e+04 4.94606171e+04 5.08494274e+04 5.22382376e+04 4.77816718e+04 4.87075453e+04 4.96334188e+04 5.05592923e+04 4.74915368e+04 4.79544735e+04 4.84174103e+04 4.88803470e+04 4.72014017e+04 4.72014017e+04 4.72014017e+04 4.72014017e+04 
        </DataArray>
      </PointData>
    </Piece>
    <Piece NumberOfPoints="16" NumberOfCells="9">
      <Points>
        <DataArray type="Float64" NumberOfComponents="3" format="ascii">
          5.00000000e-01 1.50000000e+00 0.00000000e+00 
3.33333343e-01 1.50000000e+00 0.00000000e+00 
1.66666672e-01 1.50000000e+00 0.00000000e+00 
0.00000000e+00 1.50000000e+00 0.00000000e+00 
5.00000000e-01 1.33333337e+00 0.00000000e+00 
3.88888896e-01 1.33333337e+00 0.00000000e+00 
2.77777791e-01 1.33333337e+00 0.00000000e+00 
1.66666672e-01 1.33333337e+00 0.00000000e+00 
5.00000000e-01 1.16666663e+00 0.00000000e+00 
4.44444448e-01 1.16666663e+00 0.00000000e+00 
3.88888896e-01 1.16666663e+00 0.00000000e+00 
3.33333343e-01 1.16666663e+00 0.00000000e+00 
5.00000000e-01 1.00000000e+00 0.00000000e+00 
5.00000000e-01 1.00000000e+00 0.00000000e+00 
5.00000000e-01 1.00000000e+00 0.00000000e+00 
5.00000000e-01 1.00000000e+00 0.00000000e+00 

        </DataArray>
      </Points>
      <Cells>
        <DataArray type="Int32" Name="connectivity" format="ascii">
0 1 5 4
4 5 9 8
8 9 13 12
1 2 6 5
5 6 10 9
9 10 14 13
2 3 7 6
6 7 11 10
10 11 15 14

        </DataArray>
        <DataArray type="Int32" Name="offsets" format="ascii">
4 8 12 16 20 24 28 32 36 
        </DataArray>
        <DataArray type="UInt8" Name="types" format="ascii">
9 9 9 9 9 9 9 9 9 
        </DataArray>
      </Cells>
      <PointData>
        <DataArray type="Float64" Name="u">
          1.65648586e+02 2.36537904e+02 2.26976548e+02 2.25000000e+02 2.46170464e+02 2.35075906e+02 2.17074111e+02 2.18249668e+02 2.31300745e+02 2.21344556e+02 2.16873712e+02 2.21148787e+02 1.99650322e+02 1.99650322e+02 1.99650322e+02 1.99650322e+02 
        </DataArray>
        <DataArray type="Float64" Name="v">
          -5.57230632e-01 1.98092352e-02 1.41198670e-02 0.00000000e+00 5.41900197e+01 -5.58394755e+00 -2.17166669e+01 5.96202430e+00 4.35202195e+01 8.88841544e+00 -3.85801692e+00 5.30219271e+00 2.06187542e+01 2.06187542e+01 2.06187542e+01 2.06187542e+01 
        </DataArray>
        <DataArray type="Float64" Name="p">
          4.33831553e+04 4.58778808e+04 4.83726062e+04 5.08673317e+04 4.36461126e+04 4.53092629e+04 4.69724132e+04 4.86355635e+04 4.39090699e+04 4.47406451e+04 4.55722202e+04 4.64037954e+04 4.41720272e+04 4.41720272e+04 4.41720272e+04 4.41720272e+04 
        </DataArray>
      </PointData>
    </Piece>
    <Piece NumberOfPoints="16" NumberOfCells="9">
      <Points>
        <DataArray type="Float64" NumberOfComponents="3" format="ascii">
          0.00000000e+00 1.00000000e+00 0.00000000e+00 
1.66666672e-01 1.00000000e+00 0.00000000e+00 
3.33333343e-01 1.00000000e+00 0.00000000e+00 
5.00000000e-01 1.00000000e+00 0.00000000e+00 
0.00000000e+00 1.16666663e+00 0.00000000e+00 
1.11111112e-01 1.16666663e+00 0.00000000e+00 
2.22222224e-01 1.16666663e+00 0.00000000e+00 
3.33333343e-01 1.16666663e+00 0.00000000e+00 
0.00000000e+00 1.33333337e+00 0.00000000e+00 
5.55555560e-02 1.33333337e+00 0.00000000e+00 
1.11111112e-01 1.33333337e+00 0.00000000e+00 
1.66666672e-01 1.33333337e+00 0.00000000e+00 
0.00000000e+00 1.50000000e+00 0.00000000e+00 
0.00000000e+00 1.50000000e+00 0.00000000e+00 
0.00000000e+00 1.50000000e+00 0.00000000e+00 
0.00000000e+00 1.50000000e+00 0.00000000e+00 

        </DataArray>
      </Points>
      <Cells>
        <DataArray type="Int32" Name="connectivity" format="ascii">
0 1 5 4
4 5 9 8
8 9 13 12
1 2 6 5
5 6 10 9
9 10 14 13
2 3 7 6
6 7 11 10
10 11 15 14

        </DataArray>
        <DataArray type="Int32" Name="offsets" format="ascii">
4 8 12 16 20 24 28 32 36 
        </DataArray>
        <DataArray type="UInt8" Name="types" format="ascii">
9 9 9 9 9 9 9 9 9 
        </DataArray>
      </Cells>
      <PointData>
        <DataArray type="Float64" Name="u">
          2.00000000e+02 2.01421329e+02 2.01984965e+02 1.99650322e+02 2.13888889e+02 2.14066143e+02 2.16687648e+02 2.21148787e+02 2.22222222e+02 2.19605805e+02 2.18306812e+02 2.18249668e+02 2.25000000e+02 2.25000000e+02 2.25000000e+02 2.25000000e+02 
        </DataArray>
        <DataArray type="Float64" Name="v">
          0.00000000e+00 4.31238877e+00 1.01226125e+01 2.06187542e+01 0.00000000e+00 1.81797906e+00 3.27050424e+00 5.30219271e+00 0.00000000e+00 2.29713543e+00 4.24511781e+00 5.96202430e+00 0.00000000e+00 0.00000000e+00 0.00000000e+00 0.00000000e+00 
        </DataArray>
        <DataArray type="Float64" Name="p">
          4.82525962e+04 4.75529400e+04 4.68532838e+04 4.61536277e+04 4.76997718e+04 4.72333343e+04 4.67668968e+04 4.63004594e+04 4.71469473e+04 4.69137286e+04 4.66805098e+04 4.64472911e+04 4.65941228e+04 4.65941228e+04 4.65941228e+04 4.65941228e+04 
        </DataArray>
      </PointData>
    </Piece>
    <Piece NumberOfPoints="16" NumberOfCells="9">
      <Points>
        <DataArray type="Float64" NumberOfComponents="3" format="ascii">
          0.00000000e+00 1.50000000e+00 0.00000000e+00 
1.66666672e-01 1.50000000e+00 0.00000000e+00 
3.33333343e-01 1.50000000e+00 0.00000000e+00 
5.00000000e-01 1.50000000e+00 0.00000000e+00 
1.66666672e-01 1.66666663e+00 0.00000000e+00 
2.77777791e-01 1.66666663e+00 0.00000000e+00 
3.88888896e-01 1.66666663e+00 0.00000000e+00 
5.00000000e-01 1.66666663e+00 0.00000000e+00 
3.33333343e-01 1.83333337e+00 0.00000000e+00 
3.88888896e-01 1.83333337e+00 0.00000000e+00 
4.44444448e-01 1.83333337e+00 0.00000000e+00 
5.00000000e-01 1.83333337e+00 0.00000000e+00 
5.00000000e-01 2.00000000e+00 0.00000000e+00 
5.00000000e-01 2.00000000e+00 0.00000000e+00 
5.00000000e-01 2.00000000e+00 0.00000000e+00 
5.00000000e-01 2.00000000e+00 0.00000000e+00 

        </DataArray>
      </Points>
      <Cells>
        <DataArray type="Int32" Name="connectivity" format="ascii">
0 1 5 4
4 5 9 8
8 9 13 12
1 2 6 5
5 6 10 9
9 10 14 13
2 3 7 6
6 7 11 10
10 11 15 14

        </DataArray>
        <DataArray type="Int32" Name="offsets" format="ascii">
4 8 12 16 20 24 28 32 36 
        </DataArray>
        <DataArray type="UInt8" Name="types" format="ascii">
9 9 9 9 9 9 9 9 9 
        </DataArray>
      </Cells>
      <PointData>
        <DataArray type="Float64" Name="u">
          2.25000000e+02 2.26976548e+02 2.36537904e+02 1.65648586e+02 2.18289665e+02 2.17161477e+02 2.35134273e+02 2.46123466e+02 2.21122147e+02 2.16869071e+02 2.21323730e+02 2.31225552e+02 1.99603555e+02 1.99603555e+02 1.99603555e+02 1.99603555e+02 
        </DataArray>
        <DataArray type="Float64" Name="v">
          0.00000000e+00 1.41198670e-02 1.98092352e-02 -5.57230632e-01 -5.96409887e+00 2.14792442e+01 5.44158678e+00 -5.42472337e+01 -5.40893808e+00 3.63326275e+00 -9.06409994e+00 -4.35222965e+01 -2.07965369e+01 -2.07965369e+01 -2.07965369e+01 -2.07965369e+01 
        </DataArray>
        <DataArray type="Float64" Name="p">
          5.08697711e+04 4.83686364e+04 4.58675017e+04 4.33663669e+04 4.86525137e+04 4.69850905e+04 4.53176674e+04 4.36502442e+04 4.64352562e+04 4.56015447e+04 4.47678331e+04 4.39341215e+04 4.42179988e+04 4.42179988e+04 4.42179988e+04 4.42179988e+04 
        </DataArray>
      </PointData>
    </Piece>
    <Piece NumberOfPoints="16" NumberOfCells="9">
      <Points>
        <DataArray type="Float64" NumberOfComponents="3" format="ascii">
          0.00000000e+00 2.00000000e+00 0.00000000e+00 
0.00000000e+00 1.83333337e+00 0.00000000e+00 
0.00000000e+00 1.66666663e+00 0.00000000e+00 
0.00000000e+00 1.50000000e+00 0.00000000e+00 
1.66666672e-01 2.00000000e+00 0.00000000e+00 
1.66666672e-01 1.88888884e+00 0.00000000e+00 
1.66666672e-01 1.77777779e+00 0.00000000e+00 
1.66666672e-01 1.66666663e+00 0.00000000e+00 
3.33333343e-01 2.00000000e+00 0.00000000e+00 
3.33333343e-01 1.94444442e+00 0.00000000e+00 
3.33333343e-01 1.88888884e+00 0.00000000e+00 
3.33333343e-01 1.83333337e+00 0.00000000e+00 
5.00000000e-01 2.00000000e+00 0.00000000e+00 
5.00000000e-01 2.00000000e+00 0.00000000e+00 
5.00000000e-01 2.00000000e+00 0.00000000e+00 
5.00000000e-01 2.00000000e+00 0.00000000e+00 

        </DataArray>
      </Points>
      <Cells>
        <DataArray type="Int32" Name="connectivity" format="ascii">
0 1 5 4
4 5 9 8
8 9 13 12
1 2 6 5
5 6 10 9
9 10 14 13
2 3 7 6
6 7 11 10
10 11 15 14

        </DataArray>
        <DataArray type="Int32" Name="offsets" format="ascii">
4 8 12 16 20 24 28 32 36 
        </DataArray>
        <DataArray type="UInt8" Name="types" format="ascii">
9 9 9 9 9 9 9 9 9 
        </DataArray>
      </Cells>
      <PointData>
        <DataArray type="Float64" Name="u">
          2.00000000e+02 2.13888889e+02 2.22222222e+02 2.25000000e+02 2.01428342e+02 2.11704006e+02 2.17324447e+02 2.18289665e+02 2.01991499e+02 2.10078709e+02 2.16455592e+02 2.21122147e+02 1.99603555e+02 1.99603555e+02 1.99603555e+02 1.99603555e+02 
        </DataArray>
        <DataArray type="Float64" Name="v">
          0.00000000e+00 0.00000000e+00 0.00000000e+00 0.00000000e+00 -4.34418925e+00 -2.59097960e+00 -3.13094947e+00 -5.96409887e+00 -1.01974002e+01 -7.45465638e+00 -5.85850235e+00 -5.40893808e+00 -2.07965369e+01 -2.07965369e+01 -2.07965369e+01 -2.07965369e+01 
        </DataArray>
        <DataArray type="Float64" Name="p">
          4.82950342e+04 4.77347421e+04 4.71744500e+04 4.66141579e+04 4.75933478e+04 4.72198198e+04 4.68462917e+04 4.64727636e+04 4.68916615e+04 4.67048975e+04 4.65181335e+04 4.63313694e+04 4.61899752e+04 4.61899752e+04 4.61899752e+04 4.61899752e+04 
        </DataArray>
      </PointData>
    </Piece>
    <Piece NumberOfPoints="16" NumberOfCells="9">
      <Points>
        <DataArray type="Float64" NumberOfComponents="3" format="ascii">
          5.00000000e-01 3.00000000e+00 0.00000000e+00 
3.33333343e-01 3.00000000e+00 0.00000000e+00 
1.66666672e-01 3.00000000e+00 0.00000000e+00 
0.00000000e+00 3.00000000e+00 0.00000000e+00 
5.00000000e-01 2.66666675e+00 0.00000000e+00 
3.88888896e-01 2.66666675e+00 0.00000000e+00 
2.77777791e-01 2.66666675e+00 0.00000000e+00 
1.66666672e-01 2.66666675e+00 0.00000000e+00 
5.00000000e-01 2.33333325e+00 0.00000000e+00 
4.44444448e-01 2.33333325e+00 0.00000000e+00 
3.88888896e-01 2.33333325e+00 0.00000000e+00 
3.33333343e-01 2.33333325e+00 0.00000000e+00 
5.00000000e-01 2.00000000e+00 0.00000000e+00 
5.00000000e-01 2.00000000e+00 0.00000000e+00 
5.00000000e-01 2.00000000e+00 0.00000000e+00 
5.00000000e-01 2.00000000e+00 0.00000000e+00 

        </DataArray>
      </Points>
      <Cells>
        <DataArray type="Int32" Name="connectivity" format="ascii">
0 1 5 4
4 5 9 8
8 9 13 12
1 2 6 5
5 6 10 9
9 10 14 13
2 3 7 6
6 7 11 10
10 11 15 14

        </DataArray>
        <DataArray type="Int32" Name="offsets" format="ascii">
4 8 12 16 20 24 28 32 36 
        </DataArray>
        <DataArray type="UInt8" Name="types" format="ascii">
9 9 9 9 9 9 9 9 9 
        </DataArray>
      </Cells>
      <PointData>
        <DataArray type="Float64" Name="u">
          0.00000000e+00 0.00000000e+00 0.00000000e+00 0.00000000e+00 7.26216038e+01 8.13830160e+01 8.75410903e+01 9.10958268e+01 1.61218105e+02 1.60341250e+02 1.58162727e+02 1.54682535e+02 1.99603555e+02 1.99603555e+02 1.99603555e+02 1.99603555e+02 
        </DataArray>
        <DataArray type="Float64" Name="v">
          0.00000000e+00 0.00000000e+00 0.00000000e+00 0.00000000e+00 -4.71570594e+01 -1.78588971e+01 -5.27567858e+00 -9.40740398e+00 -3.96550944e+01 -2.05918321e+01 -9.88604165e+00 -7.53772315e+00 -2.07965369e+01 -2.07965369e+01 -2.07965369e+01 -2.07965369e+01 
        </DataArray>
        <DataArray type="Float64" Name="p">
          5.05260509e+04 5.10309038e+04 5.15357568e+04 5.20406098e+04 4.94050516e+04 4.97416203e+04 5.00781889e+04 5.04147576e+04 4.82840524e+04 4.84523367e+04 4.86206210e+04 4.87889054e+04 4.71630532e+04 4.71630532e+04 4.71630532e+04 4.71630532e+04 
        </DataArray>
      </PointData>
    </Piece>
    <Piece NumberOfPoints="16" NumberOfCells="9">
      <Points>
        <DataArray type="Float64" NumberOfComponents="3" format="ascii">
          0.00000000e+00 3.00000000e+00 0.00000000e+00 
0.00000000e+00 2.66666675e+00 0.00000000e+00 
0.00000000e+00 2.33333325e+00 0.00000000e+00 
0.00000000e+00 2.00000000e+00 0.00000000e+00 
1.66666672e-01 2.66666675e+00 0.00000000e+00 
1.66666672e-01 2.44444442e+00 0.00000000e+00 
1.66666672e-01 2.22222233e+00 0.00000000e+00 
1.66666672e-01 2.00000000e+00 0.00000000e+00 
3.33333343e-01 2.33333325e+00 0.00000000e+00 
3.33333343e-01 2.22222233e+00 0.00000000e+00 
3.33333343e-01 2.11111116e+00 0.00000000e+00 
3.33333343e-01 2.00000000e+00 0.00000000e+00 
5.00000000e-01 2.00000000e+00 0.00000000e+00 
5.00000000e-01 2.00000000e+00 0.00000000e+00 
5.00000000e-01 2.00000000e+00 0.00000000e+00 
5.00000000e-01 2.00000000e+00 0.00000000e+00 

        </DataArray>
      </Points>
      <Cells>
        <DataArray type="Int32" Name="connectivity" format="ascii">
0 1 5 4
4 5 9 8
8 9 13 12
1 2 6 5
5 6 10 9
9 10 14 13
2 3 7 6
6 7 11 10
10 11 15 14

        </DataArray>
        <DataArray type="Int32" Name="offsets" format="ascii">
4 8 12 16 20 24 28 32 36 
        </DataArray>
        <DataArray type="UInt8" Name="types" format="ascii">
9 9 9 9 9 9 9 9 9 
        </DataArray>
      </Cells>
      <PointData>
        <DataArray type="Float64" Name="u">
          0.00000000e+00 8.88888889e+01 1.55555556e+02 2.00000000e+02 9.10958268e+01 1.35731581e+02 1.72509086e+02 2.01428342e+02 1.54682535e+02 1.71912179e+02 1.87681833e+02 2.01991499e+02 1.99603555e+02 1.99603555e+02 1.99603555e+02 1.99603555e+02 
        </DataArray>
        <DataArray type="Float64" Name="v">
          0.00000000e+00 0.00000000e+00 0.00000000e+00 0.00000000e+00 -9.40740398e+00 -5.66435511e+00 -3.97661686e+00 -4.34418925e+00 -7.53772315e+00 -7.39662684e+00 -8.28318585e+00 -1.01974002e+01 -2.07965369e+01 -2.07965369e+01 -2.07965369e+01 -2.07965369e+01 
        </DataArray>
        <DataArray type="Float64" Name="p">
          5.22954398e+04 5.09017220e+04 4.95080043e+04 4.81142865e+04 5.06125445e+04 4.96833994e+04 4.87542542e+04 4.78251090e+04 4.89296493e+04 4.84650767e+04 4.80005041e+04 4.75359315e+04 4.72467540e+04 4.72467540e+04 4.72467540e+04 4.72467540e+04 
        </DataArray>
      </PointData>
    </Piece>
    <Piece NumberOfPoints="16" NumberOfCells="9">
      <Points>
        <DataArray type="Float64" NumberOfComponents="3" format="ascii">
          2.00000000e+00 7.50000000e-01 0.00000000e+00 
2.00000000e+00 1.00000000e+00 0.00000000e+00 
2.00000000e+00 1.25000000e+00 0.00000000e+00 
2.00000000e+00 1.50000000e+00 0.00000000e+00 
1.83333337e+00 7.50000000e-01 0.00000000e+00 
1.83333337e+00 9.16666687e-01 0.00000000e+00 
1.83333337e+00 1.08333337e+00 0.00000000e+00 
1.83333337e+00 1.25000000e+00 0.00000000e+00 
1.66666663e+00 7.50000000e-01 0.00000000e+00 
1.66666663e+00 8.33333313e-01 0.00000000e+00 
1.66666663e+00 9.16666687e-01 0.00000000e+00 
1.66666663e+00 1.00000000e+00 0.00000000e+00 
1.50000000e+00 7.50000000e-01 0.00000000e+00 
1.50000000e+00 7.50000000e-01 0.00000000e+00 
1.50000000e+00 7.50000000e-01 0.00000000e+00 
1.50000000e+00 7.50000000e-01 0.00000000e+00 

        </DataArray>
      </Points>
      <Cells>
        <DataArray type="Int32" Name="connectivity" format="ascii">
0 1 5 4
4 5 9 8
8 9 13 12
1 2 6 5
5 6 10 9
9 10 14 13
2 3 7 6
6 7 11 10
10 11 15 14

        </DataArray>
        <DataArray type="Int32" Name="offsets" format="ascii">
4 8 12 16 20 24 28 32 36 
        </DataArray>
        <DataArray type="UInt8" Name="types" format="ascii">
9 9 9 9 9 9 9 9 9 
        </DataArray>
      </Cells>
      <PointData>
        <DataArray type="Float64" Name="u">
          0.00000000e+00 2.36912324e+02 4.18759808e+02 4.34980608e+02 0.00000000e+00 1.85578187e+02 3.26553847e+02 3.90167916e+02 0.00000000e+00 1.28175797e+02 2.40168647e+02 3.31883666e+02 0.00000000e+00 0.00000000e+00 0.00000000e+00 0.00000000e+00 
        </DataArray>
        <DataArray type="Float64" Name="v">
          0.00000000e+00 4.44085779e+00 -5.94292044e-01 9.64458481e-03 0.00000000e+00 3.43374343e+01 3.74672945e+01 1.38681268e+01 0.00000000e+00 4.29302354e+01 7.13095734e+01 8.56978323e+01 0.00000000e+00 0.00000000e+00 0.00000000e+00 0.00000000e+00 
        </DataArray>
        <DataArray type="Float64" Name="p">
          -3.66517791e+04 -2.63690361e+04 -1.60862931e+04 -5.80355008e+03 -3.76840436e+04 -3.08288816e+04 -2.39737196e+04 -1.71185576e+04 -3.87163082e+04 -3.52887272e+04 -3.18611462e+04 -2.84335652e+04 -3.97485727e+04 -3.97485727e+04 -3.97485727e+04 -3.97485727e+04 
        </DataArray>
      </PointData>
    </Piece>
    <Piece NumberOfPoints="16" NumberOfCells="9">
      <Points>
        <DataArray type="Float64" NumberOfComponents="3" format="ascii">
          2.00000000e+00 1.50000000e+00 0.00000000e+00 
1.83333337e+00 1.50000000e+00 0.00000000e+00 
1.66666663e+00 1.50000000e+00 0.00000000e+00 
1.50000000e+00 1.50000000e+00 0.00000000e+00 
1.83333337e+00 1.25000000e+00 0.00000000e+00 
1.72222221e+00 1.25000000e+00 0.00000000e+00 
1.61111116e+00 1.25000000e+00 0.00000000e+00 
1.50000000e+00 1.25000000e+00 0.00000000e+00 
1.66666663e+00 1.00000000e+00 0.00000000e+00 
1.61111116e+00 1.00000000e+00 0.00000000e+00 
1.55555558e+00 1.00000000e+00 0.00000000e+00 
1.50000000e+00 1.00000000e+00 0.00000000e+00 
1.50000000e+00 7.50000000e-01 0.00000000e+00 
1.50000000e+00 7.50000000e-01 0.00000000e+00 
1.50000000e+00 7.50000000e-01 0.00000000e+00 
1.50000000e+00 7.50000000e-01 0.00000000e+00 

        </DataArray>
      </Points>
      <Cells>
        <DataArray type="Int32" Name="connectivity" format="ascii">
0 1 5 4
4 5 9 8
8 9 13 12
1 2 6 5
5 6 10 9
9 10 14 13
2 3 7 6
6 7 11 10
10 11 15 14

        </DataArray>
        <DataArray type="Int32" Name="offsets" format="ascii">
4 8 12 16 20 24 28 32 36 
        </DataArray>
        <DataArray type="UInt8" Name="types" format="ascii">
9 9 9 9 9 9 9 9 9 
        </DataArray>
      </Cells>
      <PointData>
        <DataArray type="Float64" Name="u">
          4.34980608e+02 3.98056046e+02 3.57687754e+02 3.33677659e+02 3.90167916e+02 3.94487242e+02 3.84486588e+02 3.66033193e+02 3.31883666e+02 3.35555736e+02 3.32450453e+02 3.23301222e+02 0.00000000e+00 0.00000000e+00 0.00000000e+00 0.00000000e+00 
        </DataArray>
        <DataArray type="Float64" Name="v">
          9.64458481e-03 2.38469559e-01 -4.35934306e-01 1.08597869e-01 1.38681268e+01 2.17096875e+01 3.68523566e+01 5.99249236e+01 8.56978323e+01 1.00379419e+02 1.18811918e+02 1.41073929e+02 0.00000000e+00 0.00000000e+00 0.00000000e+00 0.00000000e+00 
        </DataArray>
        <DataArray type="Float64" Name="p">
          -1.23241070e+04 -2.42579084e+03 7.47252537e+03 1.73708416e+04 -1.96252470e+04 -1.30263695e+04 -6.42749202e+03 1.71385452e+02 -2.69263869e+04 -2.36269481e+04 -2.03275094e+04 -1.70280707e+04 -3.42275268e+04 -3.42275268e+04 -3.42275268e+04 -3.42275268e+04 
        </DataArray>
      </PointData>
    </Piece>
    <Piece NumberOfPoints="16" NumberOfCells="9">
      <Points>
        <DataArray type="Float64" NumberOfComponents="3" format="ascii">
          2.00000000e+00 1.50000000e+00 0.00000000e+00 
2.00000000e+00 1.75000000e+00 0.00000000e+00 
2.00000000e+00 2.00000000e+00 0.00000000e+00 
2.00000000e+00 2.25000000e+00 0.00000000e+00 
1.83333337e+00 1.75000000e+00 0.00000000e+00 
1.83333337e+00 1.91666663e+00 0.00000000e+00 
1.83333337e+00 2.08333325e+00 0.00000000e+00 
1.83333337e+00 2.25000000e+00 0.00000000e+00 
1.66666663e+00 2.00000000e+00 0.00000000e+00 
1.66666663e+00 2.08333325e+00 0.00000000e+00 
1.66666663e+00 2.16666675e+00 0.00000000e+00 
1.66666663e+00 2.25000000e+00 0.00000000e+00 
1.50000000e+00 2.25000000e+00 0.00000000e+00 
1.50000000e+00 2.25000000e+00 0.00000000e+00 
1.50000000e+00 2.25000000e+00 0.00000000e+00 
1.50000000e+00 2.25000000e+00 0.00000000e+00 

        </DataArray>
      </Points>
      <Cells>
        <DataArray type="Int32" Name="connectivity" format="ascii">
0 1 5 4
4 5 9 8
8 9 13 12
1 2 6 5
5 6 10 9
9 10 14 13
2 3 7 6
6 7 11 10
10 11 15 14

        </DataArray>
        <DataArray type="Int32" Name="offsets" format="ascii">
4 8 12 16 20 24 28 32 36 
        </DataArray>
        <DataArray type="UInt8" Name="types" format="ascii">
9 9 9 9 9 9 9 9 9 
        </DataArray>
      </Cells>
      <PointData>
        <DataArray type="Float64" Name="u">
          4.34980608e+02 4.18536036e+02 2.35804760e+02 0.00000000e+00 3.91204359e+02 3.25211943e+02 1.83628937e+02 0.00000000e+00 3.28306504e+02 2.36792303e+02 1.25959108e+02 0.00000000e+00 0.00000000e+00 0.00000000e+00 0.00000000e+00 0.00000000e+00 
        </DataArray>
        <DataArray type="Float64" Name="v">
          9.64458481e-03 -2.27239831e-01 -4.13673406e+00 0.00000000e+00 -1.42505180e+01 -3.65656681e+01 -3.29729115e+01 0.00000000e+00 -8.35077981e+01 -6.91785635e+01 -4.14873078e+01 0.00000000e+00 0.00000000e+00 0.00000000e+00 0.00000000e+00 0.00000000e+00 
        </DataArray>
        <DataArray type="Float64" Name="p">
          -6.38448825e+03 -1.64117316e+04 -2.64389750e+04 -3.64662183e+04 -1.74431831e+04 -2.41280120e+04 -3.08128409e+04 -3.74976698e+04 -2.85018780e+04 -3.18442924e+04 -3.51867069e+04 -3.85291213e+04 -3.95605728e+04 -3.95605728e+04 -3.95605728e+04 -3.95605728e+04 
        </DataArray>
      </PointData>
    </Piece>
    <Piece NumberOfPoints="16" NumberOfCells="9">
      <Points>
        <DataArray type="Float64" NumberOfComponents="3" format="ascii">
          1.50000000e+00 2.25000000e+00 0.00000000e+00 
1.50000000e+00 2.00000000e+00 0.00000000e+00 
1.50000000e+00 1.75000000e+00 0.00000000e+00 
1.50000000e+00 1.50000000e+00 0.00000000e+00 
1.66666663e+00 2.00000000e+00 0.00000000e+00 
1.66666663e+00 1.83333337e+00 0.00000000e+00 
1.66666663e+00 1.66666663e+00 0.00000000e+00 
1.66666663e+00 1.50000000e+00 0.00000000e+00 
1.83333337e+00 1.75000000e+00 0.00000000e+00 
1.83333337e+00 1.66666663e+00 0.00000000e+00 
1.83333337e+00 1.58333337e+00 0.00000000e+00 
1.83333337e+00 1.50000000e+00 0.00000000e+00 
2.00000000e+00 1.50000000e+00 0.00000000e+00 
2.00000000e+00 1.50000000e+00 0.00000000e+00 
2.00000000e+00 1.50000000e+00 0.00000000e+00 
2.00000000e+00 1.50000000e+00 0.00000000e+00 

        </DataArray>
      </Points>
      <Cells>
        <DataArray type="Int32" Name="connectivity" format="ascii">
0 1 5 4
4 5 9 8
8 9 13 12
1 2 6 5
5 6 10 9
9 10 14 13
2 3 7 6
6 7 11 10
10 11 15 14

        </DataArray>
        <DataArray type="Int32" Name="offsets" format="ascii">
4 8 12 16 20 24 28 32 36 
        </DataArray>
        <DataArray type="UInt8" Name="types" format="ascii">
9 9 9 9 9 9 9 9 9 
        </DataArray>
      </Cells>
      <PointData>
        <DataArray type="Float64" Name="u">
          0.00000000e+00 3.21735642e+02 3.66478171e+02 3.33677659e+02 3.28306504e+02 3.91166250e+02 3.81261228e+02 3.57687754e+02 3.91204359e+02 3.96631280e+02 3.96452829e+02 3.98056046e+02 4.34980608e+02 4.34980608e+02 4.34980608e+02 4.34980608e+02 
        </DataArray>
        <DataArray type="Float64" Name="v">
          0.00000000e+00 -1.39350022e+02 -6.11140288e+01 1.08597869e-01 -8.35077981e+01 -5.64092118e+01 -5.54828126e+00 -4.35934306e-01 -1.42505180e+01 5.77048495e+00 1.34964361e+01 2.38469559e-01 9.64458481e-03 9.64458481e-03 9.64458481e-03 9.64458481e-03 
        </DataArray>
        <DataArray type="Float64" Name="p">
          -3.37000190e+04 -1.67285333e+04 2.42952345e+02 1.72144380e+04 -2.68554340e+04 -1.55411102e+04 -4.22678641e+03 7.08753738e+03 -2.00108490e+04 -1.43536871e+04 -8.69652516e+03 -3.03936327e+03 -1.31662639e+04 -1.31662639e+04 -1.31662639e+04 -1.31662639e+04 
        </DataArray>
      </PointData>
    </Piece>
    <Piece NumberOfPoints="16" NumberOfCells="9">
      <Points>
        <DataArray type="Float64" NumberOfComponents="3" format="ascii">
          3.00000000e+00 0.00000000e+00 0.00000000e+00 
3.00000000e+00 2.50000000e-01 0.00000000e+00 
3.00000000e+00 5.00000000e-01 0.00000000e+00 
3.00000000e+00 7.50000000e-01 0.00000000e+00 
2.66666675e+00 0.00000000e+00 0.00000000e+00 
2.66666675e+00 1.66666672e-01 0.00000000e+00 
2.66666675e+00 3.33333343e-01 0.00000000e+00 
2.66666675e+00 5.00000000e-01 0.00000000e+00 
2.33333325e+00 0.00000000e+00 0.00000000e+00 
2.33333325e+00 8.33333358e-02 0.00000000e+00 
2.33333325e+00 1.66666672e-01 0.00000000e+00 
2.33333325e+00 2.50000000e-01 0.00000000e+00 
2.00000000e+00 0.00000000e+00 0.00000000e+00 
2.00000000e+00 0.00000000e+00 0.00000000e+00 
2.00000000e+00 0.00000000e+00 0.00000000e+00 
2.00000000e+00 0.00000000e+00 0.00000000e+00 

        </DataArray>
      </Points>
      <Cells>
        <DataArray type="Int32" Name="connectivity" format="ascii">
0 1 5 4
4 5 9 8
8 9 13 12
1 2 6 5
5 6 10 9
9 10 14 13
2 3 7 6
6 7 11 10
10 11 15 14

        </DataArray>
        <DataArray type="Int32" Name="offsets" format="ascii">
4 8 12 16 20 24 28 32 36 
        </DataArray>
        <DataArray type="UInt8" Name="types" format="ascii">
9 9 9 9 9 9 9 9 9 
        </DataArray>
      </Cells>
      <PointData>
        <DataArray type="Float64" Name="u">
          0.00000000e+00 -3.20315369e+01 1.45400443e+00 1.02289930e+02 0.00000000e+00 -2.20917920e+01 -2.23818410e+01 -3.26945278e-01 0.00000000e+00 -9.35733504e+00 -1.50934739e+01 -1.71405165e+01 0.00000000e+00 0.00000000e+00 0.00000000e+00 0.00000000e+00 
        </DataArray>
        <DataArray type="Float64" Name="v">