<?xml version="1.0"?>
<VTKFile type="UnstructuredGrid" version="0.1" byte_order="LittleEndian">
  <UnstructuredGrid>
    <Piece NumberOfPoints="16" NumberOfCells="9">
      <Points>
        <DataArray type="Float64" NumberOfComponents="3" format="ascii">
          0.00000000e+00 0.00000000e+00 0.00000000e+00 
1.66666672e-01 0.00000000e+00 0.00000000e+00 
3.33333343e-01 0.00000000e+00 0.00000000e+00 
5.00000000e-01 0.00000000e+00 0.00000000e+00 
1.66666672e-01 3.33333343e-01 0.00000000e+00 
2.77777791e-01 3.33333343e-01 0.00000000e+00 
3.88888896e-01 3.33333343e-01 0.00000000e+00 
5.00000000e-01 3.33333343e-01 0.00000000e+00 
3.33333343e-01 6.66666687e-01 0.00000000e+00 
3.88888896e-01 6.66666687e-01 0.00000000e+00 
4.44444448e-01 6.66666687e-01 0.00000000e+00 
5.00000000e-01 6.66666687e-01 0.00000000e+00 
5.00000000e-01 1.00000000e+00 0.00000000e+00 
5.00000000e-01 1.00000000e+00 0.00000000e+00 
5.00000000e-01 1.00000000e+00 0.00000000e+00 
5.00000000e-01 1.00000000e+00 0.00000000e+00 

        </DataArray>
      </Points>
      <Cells>
        <DataArray type="Int32" Name="connectivity" format="ascii">
0 1 5 4
4 5 9 8
8 9 13 12
1 2 6 5
5 6 10 9
9 10 14 13
2 3 7 6
6 7 11 10
10 11 15 14

        </DataArray>
        <DataArray type="Int32" Name="offsets" format="ascii">
4 8 12 16 20 24 28 32 36 
        </DataArray>
        <DataArray type="UInt8" Name="types" format="ascii">
9 9 9 9 9 9 9 9 9 
        </DataArray>
      </Cells>
      <PointData>
        <DataArray type="Float64" Name="u">
          0.00000000e+00 0.00000000e+00 0.00000000e+00 0.00000000e+00 8.98745413e+01 8.75303539e+01 8.21678343e+01 7.37869826e+01 1.54097431e+02 1.57237238e+02 1.58867879e+02 1.58989354e+02 2.01688297e+02 2.01688297e+02 2.01688297e+02 2.01688297e+02 
        </DataArray>
        <DataArray type="Float64" Name="v">
          0.00000000e+00 0.00000000e+00 0.00000000e+00 0.00000000e+00 6.29241247e+00 6.96841548e+00 1.70425466e+01 3.65148059e+01 9.54704136e+00 1.28622308e+01 2.08764842e+01 3.35898018e+01 1.96554545e+01 1.96554545e+01 1.96554545e+01 1.96554545e+01 
        </DataArray>
        <DataArray type="Float64" Name="p">
          5.59129797e+04 5.51612619e+04 5.44095441e+04 5.36578263e+04 5.42677253e+04 5.37665801e+04 5.32654350e+04 5.27642898e+04 5.26224710e+04 5.23718984e+04 5.21213258e+04 5.18707532e+04 5.09772166e+04 5.09772166e+04 5.09772166e+04 5.09772166e+04 
        </DataArray>
      </PointData>
    </Piece>
    <Piece NumberOfPoints="16" NumberOfCells="9">
      <Points>
        <DataArray type="Float64" NumberOfComponents="3" format="ascii">
          0.00000000e+00 1.00000000e+00 0.00000000e+00 
0.00000000e+00 6.66666687e-01 0.00000000e+00 
0.00000000e+00 3.33333343e-01 0.00000000e+00 
0.00000000e+00 0.00000000e+00 0.00000000e+00 
1.66666672e-01 1.00000000e+00 0.00000000e+00 
1.66666672e-01 7.77777791e-01 0.00000000e+00 
1.66666672e-01 5.55555582e-01 0.00000000e+00 
1.66666672e-01 3.33333343e-01 0.00000000e+00 
3.33333343e-01 1.00000000e+00 0.00000000e+00 
3.33333343e-01 8.88888896e-01 0.00000000e+00 
3.33333343e-01 7.77777791e-01 0.00000000e+00 
3.33333343e-01 6.66666687e-01 0.00000000e+00 
5.00000000e-01 1.00000000e+00 0.00000000e+00 
5.00000000e-01 1.00000000e+00 0.00000000e+00 
5.00000000e-01 1.00000000e+00 0.00000000e+00 
5.00000000e-01 1.00000000e+00 0.00000000e+00 

        </DataArray>
      </Points>
      <Cells>
        <DataArray type="Int32" Name="connectivity" format="ascii">
0 1 5 4
4 5 9 8
8 9 13 12
1 2 6 5
5 6 10 9
9 10 14 13
2 3 7 6
6 7 11 10
10 11 15 14

        </DataArray>
        <DataArray type="Int32" Name="offsets" format="ascii">
4 8 12 16 20 24 28 32 36 
        </DataArray>
        <DataArray type="UInt8" Name="types" format="ascii">
9 9 9 9 9 9 9 9 9 
        </DataArray>
      </Cells>
      <PointData>
        <DataArray type="Float64" Name="u">
          2.00000000e+02 1.55555556e+02 8.88888889e+01 0.00000000e+00 2.01334448e+02 1.72381220e+02 1.35227918e+02 8.98745413e+01 2.01902052e+02 1.87598080e+02 1.71663206e+02 1.54097431e+02 2.01688297e+02 2.01688297e+02 2.01688297e+02 2.01688297e+02 
        </DataArray>
        <DataArray type="Float64" Name="v">
          0.00000000e+00 0.00000000e+00 0.00000000e+00 0.00000000e+00 4.72666062e+00 4.27660657e+00 4.79852385e+00 6.29241247e+00 1.09322065e+01 9.98449910e+00 9.52277739e+00 9.54704136e+00 1.96554545e+01 1.96554545e+01 1.96554545e+01 1.96554545e+01 
        </DataArray>
        <DataArray type="Float64" Name="p">
          5.18455032e+04 5.32666398e+04 5.46877764e+04 5.61089130e+04 5.15238759e+04 5.24713004e+04 5.34187248e+04 5.43661492e+04 5.12022487e+04 5.16759609e+04 5.21496731e+04 5.26233853e+04 5.08806214e+04 5.08806214e+04 5.08806214e+04 5.08806214e+04 
        </DataArray>
      </PointData>
    </Piece>
    <Piece NumberOfPoints="16" NumberOfCells="9">
      <Points>
        <DataArray type="Float64" NumberOfComponents="3" format="ascii">
          5.00000000e-01 1.50000000e+00 0.00000000e+00 
3.33333343e-01 1.50000000e+00 0.00000000e+00 
1.66666672e-01 1.50000000e+00 0.00000000e+00 
0.00000000e+00 1.50000000e+00 0.00000000e+00 
5.00000000e-01 1.33333337e+00 0.00000000e+00 
3.88888896e-01 1.33333337e+00 0.00000000e+00 
2.77777791e-01 1.33333337e+00 0.00000000e+00 
1.66666672e-01 1.33333337e+00 0.00000000e+00 
5.00000000e-01 1.16666663e+00 0.00000000e+00 
4.44444448e-01 1.16666663e+00 0.00000000e+00 
3.88888896e-01 1.16666663e+00 0.00000000e+00 
3.33333343e-01 1.16666663e+00 0.00000000e+00 
5.00000000e-01 1.00000000e+00 0.00000000e+00 
5.00000000e-01 1.00000000e+00 0.00000000e+00 
5.00000000e-01 1.00000000e+00 0.00000000e+00 
5.00000000e-01 1.00000000e+00 0.00000000e+00 

        </DataArray>
      </Points>
      <Cells>
        <DataArray type="Int32" Name="connectivity" format="ascii">
0 1 5 4
4 5 9 8
8 9 13 12
1 2 6 5
5 6 10 9
9 10 14 13
2 3 7 6
6 7 11 10
10 11 15 14

        </DataArray>
        <DataArray type="Int32" Name="offsets" format="ascii">
4 8 12 16 20 24 28 32 36 
        </DataArray>
        <DataArray type="UInt8" Name="types" format="ascii">
9 9 9 9 9 9 9 9 9 
        </DataArray>
      </Cells>
      <PointData>
        <DataArray type="Float64" Name="u">
          1.88372355e+02 2.27266355e+02 2.28285866e+02 2.25000000e+02 2.40993463e+02 2.30380333e+02 2.20713351e+02 2.21938922e+02 2.29078746e+02 2.21463263e+02 2.18529131e+02 2.21519650e+02 2.01688297e+02 2.01688297e+02 2.01688297e+02 2.01688297e+02 
        </DataArray>
        <DataArray type="Float64" Name="v">
          -2.23023919e-01 -2.64911129e-02 -3.12997141e-03 0.00000000e+00 3.89106207e+01 -8.94963921e-01 -1.33977912e+01 1.44745454e+00 3.58899795e+01 1.23545401e+01 2.48972070e+00 6.30118568e+00 1.96554545e+01 1.96554545e+01 1.96554545e+01 1.96554545e+01 
        </DataArray>
        <DataArray type="Float64" Name="p">
          4.93228333e+04 5.05593531e+04 5.17958730e+04 5.30323928e+04 4.85604101e+04 4.93847566e+04 5.02091032e+04 5.10334498e+04 4.77979869e+04 4.82101602e+04 4.86223334e+04 4.90345067e+04 4.70355637e+04 4.70355637e+04 4.70355637e+04 4.70355637e+04 
        </DataArray>
      </PointData>
    </Piece>
    <Piece NumberOfPoints="16" NumberOfCells="9">
      <Points>
        <DataArray type="Float64" NumberOfComponents="3" format="ascii">
          0.00000000e+00 1.00000000e+00 0.00000000e+00 
1.66666672e-01 1.00000000e+00 0.00000000e+00 
3.33333343e-01 1.00000000e+00 0.00000000e+00 
5.00000000e-01 1.00000000e+00 0.00000000e+00 
0.00000000e+00 1.16666663e+00 0.00000000e+00 
1.11111112e-01 1.16666663e+00 0.00000000e+00 
2.22222224e-01 1.16666663e+00 0.00000000e+00 
3.33333343e-01 1.16666663e+00 0.00000000e+00 
0.00000000e+00 1.33333337e+00 0.00000000e+00 
5.55555560e-02 1.33333337e+00 0.00000000e+00 
1.11111112e-01 1.33333337e+00 0.00000000e+00 
1.66666672e-01 1.33333337e+00 0.00000000e+00 
0.00000000e+00 1.50000000e+00 0.00000000e+00 
0.00000000e+00 1.50000000e+00 0.00000000e+00 
0.00000000e+00 1.50000000e+00 0.00000000e+00 
0.00000000e+00 1.50000000e+00 0.00000000e+00 

        </DataArray>
      </Points>
      <Cells>
        <DataArray type="Int32" Name="connectivity" format="ascii">
0 1 5 4
4 5 9 8
8 9 13 12
1 2 6 5
5 6 10 9
9 10 14 13
2 3 7 6
6 7 11 10
10 11 15 14

        </DataArray>
        <DataArray type="Int32" Name="offsets" format="ascii">
4 8 12 16 20 24 28 32 36 
        </DataArray>
        <DataArray type="UInt8" Name="types" format="ascii">
9 9 9 9 9 9 9 9 9 
        </DataArray>
      </Cells>
      <PointData>
        <DataArray type="Float64" Name="u">
          2.00000000e+02 2.01334448e+02 2.01902052e+02 2.01688297e+02 2.13888889e+02 2.14583406e+02 2.17128427e+02 2.21519650e+02 2.22222222e+02 2.21117511e+02 2.21023257e+02 2.21938922e+02 2.25000000e+02 2.25000000e+02 2.25000000e+02 2.25000000e+02 
        </DataArray>
        <DataArray type="Float64" Name="v">
          0.00000000e+00 4.72666062e+00 1.09322065e+01 1.96554545e+01 0.00000000e+00 1.50227535e+00 3.50007137e+00 6.30118568e+00 0.00000000e+00 3.86220192e-01 8.55880138e-01 1.44745454e+00 0.00000000e+00 0.00000000e+00 0.00000000e+00 0.00000000e+00 
        </DataArray>
        <DataArray type="Float64" Name="p">
          5.19934302e+04 5.11482439e+04 5.03030577e+04 4.94578715e+04 5.14449568e+04 5.08814993e+04 5.03180418e+04 4.97545843e+04 5.08964834e+04 5.06147546e+04 5.03330259e+04 5.00512972e+04 5.03480100e+04 5.03480100e+04 5.03480100e+04 5.03480100e+04 
        </DataArray>
      </PointData>
    </Piece>
    <Piece NumberOfPoints="16" NumberOfCells="9">
      <Points>
        <DataArray type="Float64" NumberOfComponents="3" format="ascii">
          0.00000000e+00 1.50000000e+00 0.00000000e+00 
1.66666672e-01 1.50000000e+00 0.00000000e+00 
3.33333343e-01 1.50000000e+00 0.00000000e+00 
5.00000000e-01 1.50000000e+00 0.00000000e+00 
1.66666672e-01 1.66666663e+00 0.00000000e+00 
2.77777791e-01 1.66666663e+00 0.00000000e+00 
3.88888896e-01 1.66666663e+00 0.00000000e+00 
5.00000000e-01 1.66666663e+00 0.00000000e+00 
3.33333343e-01 1.83333337e+00 0.00000000e+00 
3.88888896e-01 1.83333337e+00 0.00000000e+00 
4.44444448e-01 1.83333337e+00 0.00000000e+00 
5.00000000e-01 1.83333337e+00 0.00000000e+00 
5.00000000e-01 2.00000000e+00 0.00000000e+00 
5.00000000e-01 2.00000000e+00 0.00000000e+00 
5.00000000e-01 2.00000000e+00 0.00000000e+00 
5.00000000e-01 2.00000000e+00 0.00000000e+00 

        </DataArray>
      </Points>
      <Cells>
        <DataArray type="Int32" Name="connectivity" format="ascii">
0 1 5 4
4 5 9 8
8 9 13 12
1 2 6 5
5 6 10 9
9 10 14 13
2 3 7 6
6 7 11 10
10 11 15 14

        </DataArray>
        <DataArray type="Int32" Name="offsets" format="ascii">
4 8 12 16 20 24 28 32 36 
        </DataArray>
        <DataArray type="UInt8" Name="types" format="ascii">
9 9 9 9 9 9 9 9 9 
        </DataArray>
      </Cells>
      <PointData>
        <DataArray type="Float64" Name="u">
          2.25000000e+02 2.28285866e+02 2.27266355e+02 1.88372355e+02 2.21949614e+02 2.20745943e+02 2.30394133e+02 2.40947781e+02 2.21497326e+02 2.18519433e+02 2.21445846e+02 2.29033264e+02 2.01655817e+02 2.01655817e+02 2.01655817e+02 2.01655817e+02 
        </DataArray>
        <DataArray type="Float64" Name="v">
          0.00000000e+00 -3.12997141e-03 -2.64911129e-02 -2.23023919e-01 -1.47154334e+00 1.32841601e+01 7.92313120e-01 -3.89923999e+01 -6.37396168e+00 -2.60029443e+00 -1.24481545e+01 -3.59232062e+01 -1.97500453e+01 -1.97500453e+01 -1.97500453e+01 -1.97500453e+01 
        </DataArray>
        <DataArray type="Float64" Name="p">
          5.30350603e+04 5.17941727e+04 5.05532851e+04 4.93123975e+04 5.10472422e+04 5.02199838e+04 4.93927254e+04 4.85654670e+04 4.90594241e+04 4.86457949e+04 4.82321657e+04 4.78185365e+04 4.70716060e+04 4.70716060e+04 4.70716060e+04 4.70716060e+04 
        </DataArray>
      </PointData>
    </Piece>
    <Piece NumberOfPoints="16" NumberOfCells="9">
      <Points>
        <DataArray type="Float64" NumberOfComponents="3" format="ascii">
          0.00000000e+00 2.00000000e+00 0.00000000e+00 
0.00000000e+00 1.83333337e+00 0.00000000e+00 
0.00000000e+00 1.66666663e+00 0.00000000e+00 
0.00000000e+00 1.50000000e+00 0.00000000e+00 
1.66666672e-01 2.00000000e+00 0.00000000e+00 
1.66666672e-01 1.88888884e+00 0.00000000e+00 
1.66666672e-01 1.77777779e+00 0.00000000e+00 
1.66666672e-01 1.66666663e+00 0.00000000e+00 
3.33333343e-01 2.00000000e+00 0.00000000e+00 
3.33333343e-01 1.94444442e+00 0.00000000e+00 
3.33333343e-01 1.88888884e+00 0.00000000e+00 
3.33333343e-01 1.83333337e+00 0.00000000e+00 
5.00000000e-01 2.00000000e+00 0.00000000e+00 
5.00000000e-01 2.00000000e+00 0.00000000e+00 
5.00000000e-01 2.00000000e+00 0.00000000e+00 
5.00000000e-01 2.00000000e+00 0.00000000e+00 

        </DataArray>
      </Points>
      <Cells>
        <DataArray type="Int32" Name="connectivity" format="ascii">
0 1 5 4
4 5 9 8
8 9 13 12
1 2 6 5
5 6 10 9
9 10 14 13
2 3 7 6
6 7 11 10
10 11 15 14

        </DataArray>
        <DataArray type="Int32" Name="offsets" format="ascii">
4 8 12 16 20 24 28 32 36 
        </DataArray>
        <DataArray type="UInt8" Name="types" format="ascii">
9 9 9 9 9 9 9 9 9 
        </DataArray>
      </Cells>
      <PointData>
        <DataArray type="Float64" Name="u">
          2.00000000e+02 2.13888889e+02 2.22222222e+02 2.25000000e+02 2.01333056e+02 2.11740506e+02 2.18612692e+02 2.21949614e+02 2.01893779e+02 2.09578643e+02 2.16113158e+02 2.21497326e+02 2.01655817e+02 2.01655817e+02 2.01655817e+02 2.01655817e+02 
        </DataArray>
        <DataArray type="Float64" Name="v">
          0.00000000e+00 0.00000000e+00 0.00000000e+00 0.00000000e+00 -4.75032353e+00 -3.07188803e+00 -1.97896130e+00 -1.47154334e+00 -1.09829487e+01 -9.15386528e+00 -7.61753629e+00 -6.37396168e+00 -1.97500453e+01 -1.97500453e+01 -1.97500453e+01 -1.97500453e+01 
        </DataArray>
        <DataArray type="Float64" Name="p">
          5.20226596e+04 5.14670299e+04 5.09114001e+04 5.03557704e+04 5.11776617e+04 5.08072419e+04 5.04368221e+04 5.00664022e+04 5.03326638e+04 5.01474539e+04 4.99622440e+04 4.97770341e+04 4.94876659e+04 4.94876659e+04 4.94876659e+04 4.94876659e+04 
        </DataArray>
      </PointData>
    </Piece>
    <Piece NumberOfPoints="16" NumberOfCells="9">
      <Points>
        <DataArray type="Float64" NumberOfComponents="3" format="ascii">
          5.00000000e-01 3.00000000e+00 0.00000000e+00 
3.33333343e-01 3.00000000e+00 0.00000000e+00 
1.66666672e-01 3.00000000e+00 0.00000000e+00 
0.00000000e+00 3.00000000e+00 0.00000000e+00 
5.00000000e-01 2.66666675e+00 0.00000000e+00 
3.88888896e-01 2.66666675e+00 0.00000000e+00 
2.77777791e-01 2.66666675e+00 0.00000000e+00 
1.66666672e-01 2.66666675e+00 0.00000000e+00 
5.00000000e-01 2.33333325e+00 0.00000000e+00 
4.44444448e-01 2.33333325e+00 0.00000000e+00 
3.88888896e-01 2.33333325e+00 0.00000000e+00 
3.33333343e-01 2.33333325e+00 0.00000000e+00 
5.00000000e-01 2.00000000e+00 0.00000000e+00 
5.00000000e-01 2.00000000e+00 0.00000000e+00 
5.00000000e-01 2.00000000e+00 0.00000000e+00 
5.00000000e-01 2.00000000e+00 0.00000000e+00 

        </DataArray>
      </Points>
      <Cells>
        <DataArray type="Int32" Name="connectivity" format="ascii">
0 1 5 4
4 5 9 8
8 9 13 12
1 2 6 5
5 6 10 9
9 10 14 13
2 3 7 6
6 7 11 10
10 11 15 14

        </DataArray>
        <DataArray type="Int32" Name="offsets" format="ascii">
4 8 12 16 20 24 28 32 36 
        </DataArray>
        <DataArray type="UInt8" Name="types" format="ascii">
9 9 9 9 9 9 9 9 9 
        </DataArray>
      </Cells>
      <PointData>
        <DataArray type="Float64" Name="u">
          0.00000000e+00 0.00000000e+00 0.00000000e+00 0.00000000e+00 7.37804413e+01 8.21625221e+01 8.75275167e+01 8.98754253e+01 1.58953754e+02 1.58837986e+02 1.57213674e+02 1.54080820e+02 2.01655817e+02 2.01655817e+02 2.01655817e+02 2.01655817e+02 
        </DataArray>
        <DataArray type="Float64" Name="v">
          0.00000000e+00 0.00000000e+00 0.00000000e+00 0.00000000e+00 -3.64881595e+01 -1.70444554e+01 -6.98084893e+00 -6.29733992e+00 -3.35771177e+01 -2.08825005e+01 -1.28779320e+01 -9.56341235e+00 -1.97500453e+01 -1.97500453e+01 -1.97500453e+01 -1.97500453e+01 
        </DataArray>
        <DataArray type="Float64" Name="p">
          5.36964436e+04 5.44475924e+04 5.51987412e+04 5.59498900e+04 5.28017839e+04 5.33025497e+04 5.38033156e+04 5.43040814e+04 5.19071241e+04 5.21575070e+04 5.24078900e+04 5.26582729e+04 5.10124644e+04 5.10124644e+04 5.10124644e+04 5.10124644e+04 
        </DataArray>
      </PointData>
    </Piece>
    <Piece NumberOfPoints="16" NumberOfCells="9">
      <Points>
        <DataArray type="Float64" NumberOfComponents="3" format="ascii">
          0.00000000e+00 3.00000000e+00 0.00000000e+00 
0.00000000e+00 2.66666675e+00 0.00000000e+00 
0.00000000e+00 2.33333325e+00 0.00000000e+00 
0.00000000e+00 2.00000000e+00 0.00000000e+00 
1.66666672e-01 2.66666675e+00 0.00000000e+00 
1.66666672e-01 2.44444442e+00 0.00000000e+00 
1.66666672e-01 2.22222233e+00 0.00000000e+00 
1.66666672e-01 2.00000000e+00 0.00000000e+00 
3.33333343e-01 2.33333325e+00 0.00000000e+00 
3.33333343e-01 2.22222233e+00 0.00000000e+00 
3.33333343e-01 2.11111116e+00 0.00000000e+00 
3.33333343e-01 2.00000000e+00 0.00000000e+00 
5.00000000e-01 2.00000000e+00 0.00000000e+00 
5.00000000e-01 2.00000000e+00 0.00000000e+00 
5.00000000e-01 2.00000000e+00 0.00000000e+00 
5.00000000e-01 2.00000000e+00 0.00000000e+00 

        </DataArray>
      </Points>
      <Cells>
        <DataArray type="Int32" Name="connectivity" format="ascii">
0 1 5 4
4 5 9 8
8 9 13 12
1 2 6 5
5 6 10 9
9 10 14 13
2 3 7 6
6 7 11 10
10 11 15 14

        </DataArray>
        <DataArray type="Int32" Name="offsets" format="ascii">
4 8 12 16 20 24 28 32 36 
        </DataArray>
        <DataArray type="UInt8" Name="types" format="ascii">
9 9 9 9 9 9 9 9 9 
        </DataArray>
      </Cells>
      <PointData>
        <DataArray type="Float64" Name="u">
          0.00000000e+00 8.88888889e+01 1.55555556e+02 2.00000000e+02 8.98754253e+01 1.35223987e+02 1.72376531e+02 2.01333056e+02 1.54080820e+02 1.71647347e+02 1.87584999e+02 2.01893779e+02 2.01655817e+02 2.01655817e+02 2.01655817e+02 2.01655817e+02 
        </DataArray>
        <DataArray type="Float64" Name="v">
          0.00000000e+00 0.00000000e+00 0.00000000e+00 0.00000000e+00 -6.29733992e+00 -4.80552721e+00 -4.28985508e+00 -4.75032353e+00 -9.56341235e+00 -9.54852083e+00 -1.00216996e+01 -1.09829487e+01 -1.97500453e+01 -1.97500453e+01 -1.97500453e+01 -1.97500453e+01 
        </DataArray>
        <DataArray type="Float64" Name="p">
          5.61491906e+04 5.47245808e+04 5.32999710e+04 5.18753611e+04 5.44034675e+04 5.34537276e+04 5.25039877e+04 5.15542478e+04 5.26577444e+04 5.21828744e+04 5.17080045e+04 5.12331345e+04 5.09120213e+04 5.09120213e+04 5.09120213e+04 5.09120213e+04 
        </DataArray>
      </PointData>
    </Piece>
    <Piece NumberOfPoints="16" NumberOfCells="9">
      <Points>
        <DataArray type="Float64" NumberOfComponents="3" format="ascii">
          2.00000000e+00 7.50000000e-01 0.00000000e+00 
2.00000000e+00 1.00000000e+00 0.00000000e+00 
2.00000000e+00 1.25000000e+00 0.00000000e+00 
2.00000000e+00 1.50000000e+00 0.00000000e+00 
1.83333337e+00 7.50000000e-01 0.00000000e+00 
1.83333337e+00 9.16666687e-01 0.00000000e+00 
1.83333337e+00 1.08333337e+00 0.00000000e+00 
1.83333337e+00 1.25000000e+00 0.00000000e+00 
1.66666663e+00 7.50000000e-01 0.00000000e+00 
1.66666663e+00 8.33333313e-01 0.00000000e+00 
1.66666663e+00 9.16666687e-01 0.00000000e+00 
1.66666663e+00 1.00000000e+00 0.00000000e+00 
1.50000000e+00 7.50000000e-01 0.00000000e+00 
1.50000000e+00 7.50000000e-01 0.00000000e+00 
1.50000000e+00 7.50000000e-01 0.00000000e+00 
1.50000000e+00 7.50000000e-01 0.00000000e+00 

        </DataArray>
      </Points>
      <Cells>
        <DataArray type="Int32" Name="connectivity" format="ascii">
0 1 5 4
4 5 9 8
8 9 13 12
1 2 6 5
5 6 10 9
9 10 14 13
2 3 7 6
6 7 11 10
10 11 15 14

        </DataArray>
        <DataArray type="Int32" Name="offsets" format="ascii">
4 8 12 16 20 24 28 32 36 
        </DataArray>
        <DataArray type="UInt8" Name="types" format="ascii">
9 9 9 9 9 9 9 9 9 
        </DataArray>
      </Cells>
      <PointData>
        <DataArray type="Float64" Name="u">
          0.00000000e+00 2.42592109e+02 4.09669376e+02 4.44905009e+02 0.00000000e+00 1.86099980e+02 3.22463855e+02 3.92402206e+02 0.00000000e+00 1.22364631e+02 2.28251748e+02 3.15575174e+02 0.00000000e+00 0.00000000e+00 0.00000000e+00 0.00000000e+00 
        </DataArray>
        <DataArray type="Float64" Name="v">
          0.00000000e+00 -1.03600162e+00 2.60941401e+00 -6.06170299e-02 0.00000000e+00 2.26607756e+01 2.92387305e+01 1.64755346e+01 0.00000000e+00 3.10701695e+01 5.35787711e+01 6.71185137e+01 0.00000000e+00 0.00000000e+00 0.00000000e+00 0.00000000e+00 
        </DataArray>
        <DataArray type="Float64" Name="p">
          -3.48721785e+04 -2.59126680e+04 -1.69531575e+04 -7.99364694e+03 -3.55420968e+04 -2.95690897e+04 -2.35960827e+04 -1.76230757e+04 -3.62120150e+04 -3.32255114e+04 -3.02390079e+04 -2.72525044e+04 -3.68819332e+04 -3.68819332e+04 -3.68819332e+04 -3.68819332e+04 
        </DataArray>
      </PointData>
    </Piece>
    <Piece NumberOfPoints="16" NumberOfCells="9">
      <Points>
        <DataArray type="Float64" NumberOfComponents="3" format="ascii">
          2.00000000e+00 1.50000000e+00 0.00000000e+00 
1.83333337e+00 1.50000000e+00 0.00000000e+00 
1.66666663e+00 1.50000000e+00 0.00000000e+00 
1.50000000e+00 1.50000000e+00 0.00000000e+00 
1.83333337e+00 1.25000000e+00 0.00000000e+00 
1.72222221e+00 1.25000000e+00 0.00000000e+00 
1.61111116e+00 1.25000000e+00 0.00000000e+00 
1.50000000e+00 1.25000000e+00 0.00000000e+00 
1.66666663e+00 1.00000000e+00 0.00000000e+00 
1.61111116e+00 1.00000000e+00 0.00000000e+00 
1.55555558e+00 1.00000000e+00 0.00000000e+00 
1.50000000e+00 1.00000000e+00 0.00000000e+00 
1.50000000e+00 7.50000000e-01 0.00000000e+00 
1.50000000e+00 7.50000000e-01 0.00000000e+00 
1.50000000e+00 7.50000000e-01 0.00000000e+00 
1.50000000e+00 7.50000000e-01 0.00000000e+00 

        </DataArray>
      </Points>
      <Cells>
        <DataArray type="Int32" Name="connectivity" format="ascii">
0 1 5 4
4 5 9 8
8 9 13 12
1 2 6 5
5 6 10 9
9 10 14 13
2 3 7 6
6 7 11 10
10 11 15 14

        </DataArray>
        <DataArray type="Int32" Name="offsets" format="ascii">
4 8 12 16 20 24 28 32 36 
        </DataArray>
        <DataArray type="UInt8" Name="types" format="ascii">
9 9 9 9 9 9 9 9 9 
        </DataArray>
      </Cells>
      <PointData>
        <DataArray type="Float64" Name="u">
          4.44905009e+02 4.07487548e+02 3.70085226e+02 3.40075008e+02 3.92402206e+02 3.95591456e+02 3.87383780e+02 3.69964944e+02 3.15575174e+02 3.21675704e+02 3.22076088e+02 3.17049548e+02 0.00000000e+00 0.00000000e+00 0.00000000e+00 0.00000000e+00 
        </DataArray>
        <DataArray type="Float64" Name="v">
          -6.06170299e-02 4.00466711e-02 -2.97112555e-01 -2.46538855e-02 1.64755346e+01 2.44372715e+01 3.87729114e+01 5.97928070e+01 6.71185137e+01 8.23440281e+01 1.00805141e+02 1.22540647e+02 0.00000000e+00 0.00000000e+00 0.00000000e+00 0.00000000e+00 
        </DataArray>
        <DataArray type="Float64" Name="p">
          -1.48913518e+04 -4.54667004e+03 5.79801168e+03 1.61426934e+04 -2.01414956e+04 -1.32450411e+04 -6.34858660e+03 5.47867885e+02 -2.53916394e+04 -2.19434121e+04 -1.84951849e+04 -1.50469576e+04 -3.06417831e+04 -3.06417831e+04 -3.06417831e+04 -3.06417831e+04 
        </DataArray>
      </PointData>
    </Piece>
    <Piece NumberOfPoints="16" NumberOfCells="9">
      <Points>
        <DataArray type="Float64" NumberOfComponents="3" format="ascii">
          2.00000000e+00 1.50000000e+00 0.00000000e+00 
2.00000000e+00 1.75000000e+00 0.00000000e+00 
2.00000000e+00 2.00000000e+00 0.00000000e+00 
2.00000000e+00 2.25000000e+00 0.00000000e+00 
1.83333337e+00 1.75000000e+00 0.00000000e+00 
1.83333337e+00 1.91666663e+00 0.00000000e+00 
1.83333337e+00 2.08333325e+00 0.00000000e+00 
1.83333337e+00 2.25000000e+00 0.00000000e+00 
1.66666663e+00 2.00000000e+00 0.00000000e+00 
1.66666663e+00 2.08333325e+00 0.00000000e+00 
1.66666663e+00 2.16666675e+00 0.00000000e+00 
1.66666663e+00 2.25000000e+00 0.00000000e+00 
1.50000000e+00 2.25000000e+00 0.00000000e+00 
1.50000000e+00 2.25000000e+00 0.00000000e+00 
1.50000000e+00 2.25000000e+00 0.00000000e+00 
1.50000000e+00 2.25000000e+00 0.00000000e+00 

        </DataArray>
      </Points>
      <Cells>
        <DataArray type="Int32" Name="connectivity" format="ascii">
0 1 5 4
4 5 9 8
8 9 13 12
1 2 6 5
5 6 10 9
9 10 14 13
2 3 7 6
6 7 11 10
10 11 15 14

        </DataArray>
        <DataArray type="Int32" Name="offsets" format="ascii">
4 8 12 16 20 24 28 32 36 
        </DataArray>
        <DataArray type="UInt8" Name="types" format="ascii">
9 9 9 9 9 9 9 9 9 
        </DataArray>
      </Cells>
      <PointData>
        <DataArray type="Float64" Name="u">
          4.44905009e+02 4.09482620e+02 2.41652556e+02 0.00000000e+00 3.92832569e+02 3.21523715e+02 1.84793334e+02 0.00000000e+00 3.13516491e+02 2.26286520e+02 1.21057749e+02 0.00000000e+00 0.00000000e+00 0.00000000e+00 0.00000000e+00 0.00000000e+00 
        </DataArray>
        <DataArray type="Float64" Name="v">
          -6.06170299e-02 -2.98182391e+00 1.12349179e+00 0.00000000e+00 -1.67040662e+01 -2.88392414e+01 -2.20608164e+01 0.00000000e+00 -6.60965537e+01 -5.25891442e+01 -3.04056592e+01 0.00000000e+00 0.00000000e+00 0.00000000e+00 0.00000000e+00 0.00000000e+00 
        </DataArray>
        <DataArray type="Float64" Name="p">
          -8.25882555e+03 -1.71063088e+04 -2.59537920e+04 -3.48012752e+04 -1.78003962e+04 -2.36987183e+04 -2.95970405e+04 -3.54953626e+04 -2.73419668e+04 -3.02911279e+04 -3.32402890e+04 -3.61894500e+04 -3.68835374e+04 -3.68835374e+04 -3.68835374e+04 -3.68835374e+04 
        </DataArray>
      </PointData>
    </Piece>
    <Piece NumberOfPoints="16" NumberOfCells="9">
      <Points>
        <DataArray type="Float64" NumberOfComponents="3" format="ascii">
          1.50000000e+00 2.25000000e+00 0.00000000e+00 
1.50000000e+00 2.00000000e+00 0.00000000e+00 
1.50000000e+00 1.75000000e+00 0.00000000e+00 
1.50000000e+00 1.50000000e+00 0.00000000e+00 
1.66666663e+00 2.00000000e+00 0.00000000e+00 
1.66666663e+00 1.83333337e+00 0.00000000e+00 
1.66666663e+00 1.66666663e+00 0.00000000e+00 
1.66666663e+00 1.50000000e+00 0.00000000e+00 
1.83333337e+00 1.75000000e+00 0.00000000e+00 
1.83333337e+00 1.66666663e+00 0.00000000e+00 
1.83333337e+00 1.58333337e+00 0.00000000e+00 
1.83333337e+00 1.50000000e+00 0.00000000e+00 
2.00000000e+00 1.50000000e+00 0.00000000e+00 
2.00000000e+00 1.50000000e+00 0.00000000e+00 
2.00000000e+00 1.50000000e+00 0.00000000e+00 
2.00000000e+00 1.50000000e+00 0.00000000e+00 

        </DataArray>
      </Points>
      <Cells>
        <DataArray type="Int32" Name="connectivity" format="ascii">
0 1 5 4
4 5 9 8
8 9 13 12
1 2 6 5
5 6 10 9
9 10 14 13
2 3 7 6
6 7 11 10
10 11 15 14

        </DataArray>
        <DataArray type="Int32" Name="offsets" format="ascii">
4 8 12 16 20 24 28 32 36 
        </DataArray>
        <DataArray type="UInt8" Name="types" format="ascii">
9 9 9 9 9 9 9 9 9 
        </DataArray>
      </Cells>
      <PointData>
        <DataArray type="Float64" Name="u">
          0.00000000e+00 3.15978609e+02 3.70290227e+02 3.40075008e+02 3.13516491e+02 3.86760638e+02 3.88121559e+02 3.70085226e+02 3.92832569e+02 4.02398149e+02 4.05096227e+02 4.07487548e+02 4.44905009e+02 4.44905009e+02 4.44905009e+02 4.44905009e+02 
        </DataArray>
        <DataArray type="Float64" Name="v">
          0.00000000e+00 -1.21651556e+02 -6.05657233e+01 -2.46538855e-02 -6.60965537e+01 -5.16951717e+01 -1.16600836e+01 -2.97112555e-01 -1.67040662e+01 -1.37265126e+00 6.47146231e+00 4.00466711e-02 -6.06170299e-02 -6.06170299e-02 -6.06170299e-02 -6.06170299e-02 
        </DataArray>
        <DataArray type="Float64" Name="p">
          -3.03939492e+04 -1.49105023e+04 5.72944513e+02 1.60563914e+04 -2.53780424e+04 -1.50557445e+04 -4.73344657e+03 5.58885132e+03 -2.03621356e+04 -1.52009866e+04 -1.00398377e+04 -4.87868871e+03 -1.53462287e+04 -1.53462287e+04 -1.53462287e+04 -1.53462287e+04 
        </DataArray>
      </PointData>
    </Piece>
    <Piece NumberOfPoints="16" NumberOfCells="9">
      <Points>
        <DataArray type="Float64" NumberOfComponents="3" format="ascii">
          3.00000000e+00 0.00000000e+00 0.00000000e+00 
3.00000000e+00 2.50000000e-01 0.00000000e+00 
3.00000000e+00 5.00000000e-01 0.00000000e+00 
3.00000000e+00 7.50000000e-01 0.00000000e+00 
2.66666675e+00 0.00000000e+00 0.00000000e+00 
2.66666675e+00 1.66666672e-01 0.00000000e+00 
2.66666675e+00 3.33333343e-01 0.00000000e+00 
2.66666675e+00 5.00000000e-01 0.00000000e+00 
2.33333325e+00 0.00000000e+00 0.00000000e+00 
2.33333325e+00 8.33333358e-02 0.00000000e+00 
2.33333325e+00 1.66666672e-01 0.00000000e+00 
2.33333325e+00 2.50000000e-01 0.00000000e+00 
2.00000000e+00 0.00000000e+00 0.00000000e+00 
2.00000000e+00 0.00000000e+00 0.00000000e+00 
2.00000000e+00 0.00000000e+00 0.00000000e+00 
2.00000000e+00 0.00000000e+00 0.00000000e+00 

        </DataArray>
      </Points>
      <Cells>
        <DataArray type="Int32" Name="connectivity" format="ascii">
0 1 5 4
4 5 9 8
8 9 13 12
1 2 6 5
5 6 10 9
9 10 14 13
2 3 7 6
6 7 11 10
10 11 15 14

        </DataArray>
        <DataArray type="Int32" Name="offsets" format="ascii">
4 8 12 16 20 24 28 32 36 
        </DataArray>
        <DataArray type="UInt8" Name="types" format="ascii">
9 9 9 9 9 9 9 9 9 
        </DataArray>
      </Cells>
      <PointData>
        <DataArray type="Float64" Name="u">
          0.00000000e+00 -2.16991666e+01 1.86634983e+01 1.19155519e+02 0.00000000e+00 -2.09070983e+01 -1.70766538e+01 1.09187481e+01 0.00000000e+00 -1.16837315e+01 -1.78944506e+01 -1.87037306e+01 0.00000000e+00 0.00000000e+00 0.00000000e+00 0.00000000e+00 
        </DataArray>
        <DataArray type="Float64" Name="v">