<?xml version="1.0"?>
<VTKFile type="UnstructuredGrid" version="0.1" byte_order="LittleEndian">
  <UnstructuredGrid>
    <Piece NumberOfPoints="16" NumberOfCells="9">
      <Points>
        <DataArray type="Float64" NumberOfComponents="3" format="ascii">
          0.00000000e+00 0.00000000e+00 0.00000000e+00 
1.66666672e-01 0.00000000e+00 0.00000000e+00 
3.33333343e-01 0.00000000e+00 0.00000000e+00 
5.00000000e-01 0.00000000e+00 0.00000000e+00 
1.66666672e-01 3.33333343e-01 0.00000000e+00 
2.77777791e-01 3.33333343e-01 0.00000000e+00 
3.88888896e-01 3.33333343e-01 0.00000000e+00 
5.00000000e-01 3.33333343e-01 0.00000000e+00 
3.33333343e-01 6.66666687e-01 0.00000000e+00 
3.88888896e-01 6.66666687e-01 0.00000000e+00 
4.44444448e-01 6.66666687e-01 0.00000000e+00 
5.00000000e-01 6.66666687e-01 0.00000000e+00 
5.00000000e-01 1.00000000e+00 0.00000000e+00 
5.00000000e-01 1.00000000e+00 0.00000000e+00 
5.00000000e-01 1.00000000e+00 0.00000000e+00 
5.00000000e-01 1.00000000e+00 0.00000000e+00 

        </DataArray>
      </Points>
      <Cells>
        <DataArray type="Int32" Name="connectivity" format="ascii">
0 1 5 4
4 5 9 8
8 9 13 12
1 2 6 5
5 6 10 9
9 10 14 13
2 3 7 6
6 7 11 10
10 11 15 14

        </DataArray>
        <DataArray type="Int32" Name="offsets" format="ascii">
4 8 12 16 20 24 28 32 36 
        </DataArray>
        <DataArray type="UInt8" Name="types" format="ascii">
9 9 9 9 9 9 9 9 9 
        </DataArray>
      </Cells>
      <PointData>
        <DataArray type="Float64" Name="u">
          0.00000000e+00 0.00000000e+00 0.00000000e+00 0.00000000e+00 9.15230975e+01 8.74973467e+01 8.11169208e+01 7.23818198e+01 1.54878938e+02 1.58331548e+02 1.60606820e+02 1.61704754e+02 1.99019108e+02 1.99019108e+02 1.99019108e+02 1.99019108e+02 
        </DataArray>
        <DataArray type="Float64" Name="v">
          0.00000000e+00 0.00000000e+00 0.00000000e+00 0.00000000e+00 1.05087756e+01 4.74506926e+00 1.78187226e+01 4.97297357e+01 7.18611012e+00 9.04895207e+00 2.03304739e+01 4.10306755e+01 2.08081125e+01 2.08081125e+01 2.08081125e+01 2.08081125e+01 
        </DataArray>
        <DataArray type="Float64" Name="p">
          5.27879622e+04 5.23486122e+04 5.19092621e+04 5.14699120e+04 5.11750589e+04 5.08821588e+04 5.05892588e+04 5.02963587e+04 4.95621555e+04 4.94157055e+04 4.92692554e+04 4.91228054e+04 4.79492521e+04 4.79492521e+04 4.79492521e+04 4.79492521e+04 
        </DataArray>
      </PointData>
    </Piece>
    <Piece NumberOfPoints="16" NumberOfCells="9">
      <Points>
        <DataArray type="Float64" NumberOfComponents="3" format="ascii">
          0.00000000e+00 1.00000000e+00 0.00000000e+00 
0.00000000e+00 6.66666687e-01 0.00000000e+00 
0.00000000e+00 3.33333343e-01 0.00000000e+00 
0.00000000e+00 0.00000000e+00 0.00000000e+00 
1.66666672e-01 1.00000000e+00 0.00000000e+00 
1.66666672e-01 7.77777791e-01 0.00000000e+00 
1.66666672e-01 5.55555582e-01 0.00000000e+00 
1.66666672e-01 3.33333343e-01 0.00000000e+00 
3.33333343e-01 1.00000000e+00 0.00000000e+00 
3.33333343e-01 8.88888896e-01 0.00000000e+00 
3.33333343e-01 7.77777791e-01 0.00000000e+00 
3.33333343e-01 6.66666687e-01 0.00000000e+00 
5.00000000e-01 1.00000000e+00 0.00000000e+00 
5.00000000e-01 1.00000000e+00 0.00000000e+00 
5.00000000e-01 1.00000000e+00 0.00000000e+00 
5.00000000e-01 1.00000000e+00 0.00000000e+00 

        </DataArray>
      </Points>
      <Cells>
        <DataArray type="Int32" Name="connectivity" format="ascii">
0 1 5 4
4 5 9 8
8 9 13 12
1 2 6 5
5 6 10 9
9 10 14 13
2 3 7 6
6 7 11 10
10 11 15 14

        </DataArray>
        <DataArray type="Int32" Name="offsets" format="ascii">
4 8 12 16 20 24 28 32 36 
        </DataArray>
        <DataArray type="UInt8" Name="types" format="ascii">
9 9 9 9 9 9 9 9 9 
        </DataArray>
      </Cells>
      <PointData>
        <DataArray type="Float64" Name="u">
          2.00000000e+02 1.55555556e+02 8.88888889e+01 0.00000000e+00 2.01401008e+02 1.72493449e+02 1.35867479e+02 9.15230975e+01 2.02066572e+02 1.87727430e+02 1.71998219e+02 1.54878938e+02 1.99019108e+02 1.99019108e+02 1.99019108e+02 1.99019108e+02 
        </DataArray>
        <DataArray type="Float64" Name="v">
          0.00000000e+00 0.00000000e+00 0.00000000e+00 0.00000000e+00 4.32520707e+00 3.90387755e+00 5.96506706e+00 1.05087756e+01 1.01084246e+01 7.89306026e+00 6.91895544e+00 7.18611012e+00 2.08081125e+01 2.08081125e+01 2.08081125e+01 2.08081125e+01 
        </DataArray>
        <DataArray type="Float64" Name="p">
          4.89348918e+04 5.03180751e+04 5.17012585e+04 5.30844418e+04 4.86420163e+04 4.95641385e+04 5.04862607e+04 5.14083829e+04 4.83491407e+04 4.88102018e+04 4.92712629e+04 4.97323241e+04 4.80562652e+04 4.80562652e+04 4.80562652e+04 4.80562652e+04 
        </DataArray>
      </PointData>
    </Piece>
    <Piece NumberOfPoints="16" NumberOfCells="9">
      <Points>
        <DataArray type="Float64" NumberOfComponents="3" format="ascii">
          5.00000000e-01 1.50000000e+00 0.00000000e+00 
3.33333343e-01 1.50000000e+00 0.00000000e+00 
1.66666672e-01 1.50000000e+00 0.00000000e+00 
0.00000000e+00 1.50000000e+00 0.00000000e+00 
5.00000000e-01 1.33333337e+00 0.00000000e+00 
3.88888896e-01 1.33333337e+00 0.00000000e+00 
2.77777791e-01 1.33333337e+00 0.00000000e+00 
1.66666672e-01 1.33333337e+00 0.00000000e+00 
5.00000000e-01 1.16666663e+00 0.00000000e+00 
4.44444448e-01 1.16666663e+00 0.00000000e+00 
3.88888896e-01 1.16666663e+00 0.00000000e+00 
3.33333343e-01 1.16666663e+00 0.00000000e+00 
5.00000000e-01 1.00000000e+00 0.00000000e+00 
5.00000000e-01 1.00000000e+00 0.00000000e+00 
5.00000000e-01 1.00000000e+00 0.00000000e+00 
5.00000000e-01 1.00000000e+00 0.00000000e+00 

        </DataArray>
      </Points>
      <Cells>
        <DataArray type="Int32" Name="connectivity" format="ascii">
0 1 5 4
4 5 9 8
8 9 13 12
1 2 6 5
5 6 10 9
9 10 14 13
2 3 7 6
6 7 11 10
10 11 15 14

        </DataArray>
        <DataArray type="Int32" Name="offsets" format="ascii">
4 8 12 16 20 24 28 32 36 
        </DataArray>
        <DataArray type="UInt8" Name="types" format="ascii">
9 9 9 9 9 9 9 9 9 
        </DataArray>
      </Cells>
      <PointData>
        <DataArray type="Float64" Name="u">
          1.60889763e+02 2.39782400e+02 2.25687454e+02 2.25000000e+02 2.47658176e+02 2.36747307e+02 2.16029088e+02 2.17027986e+02 2.31482234e+02 2.21242041e+02 2.16430126e+02 2.20987048e+02 1.99019108e+02 1.99019108e+02 1.99019108e+02 1.99019108e+02 
        </DataArray>
        <DataArray type="Float64" Name="v">
          -3.45371721e-01 1.74404913e-01 -2.18675696e-02 0.00000000e+00 5.83294886e+01 -6.23606775e+00 -2.32795031e+01 7.47597945e+00 4.52402541e+01 8.10157896e+00 -5.19647462e+00 5.38069292e+00 2.08081125e+01 2.08081125e+01 2.08081125e+01 2.08081125e+01 
        </DataArray>
        <DataArray type="Float64" Name="p">
          4.32878942e+04 4.62297085e+04 4.91715228e+04 5.21133370e+04 4.39565040e+04 4.59177135e+04 4.78789230e+04 4.98401325e+04 4.46251137e+04 4.56057185e+04 4.65863232e+04 4.75669280e+04 4.52937234e+04 4.52937234e+04 4.52937234e+04 4.52937234e+04 
        </DataArray>
      </PointData>
    </Piece>
    <Piece NumberOfPoints="16" NumberOfCells="9">
      <Points>
        <DataArray type="Float64" NumberOfComponents="3" format="ascii">
          0.00000000e+00 1.00000000e+00 0.00000000e+00 
1.66666672e-01 1.00000000e+00 0.00000000e+00 
3.33333343e-01 1.00000000e+00 0.00000000e+00 
5.00000000e-01 1.00000000e+00 0.00000000e+00 
0.00000000e+00 1.16666663e+00 0.00000000e+00 
1.11111112e-01 1.16666663e+00 0.00000000e+00 
2.22222224e-01 1.16666663e+00 0.00000000e+00 
3.33333343e-01 1.16666663e+00 0.00000000e+00 
0.00000000e+00 1.33333337e+00 0.00000000e+00 
5.55555560e-02 1.33333337e+00 0.00000000e+00 
1.11111112e-01 1.33333337e+00 0.00000000e+00 
1.66666672e-01 1.33333337e+00 0.00000000e+00 
0.00000000e+00 1.50000000e+00 0.00000000e+00 
0.00000000e+00 1.50000000e+00 0.00000000e+00 
0.00000000e+00 1.50000000e+00 0.00000000e+00 
0.00000000e+00 1.50000000e+00 0.00000000e+00 

        </DataArray>
      </Points>
      <Cells>
        <DataArray type="Int32" Name="connectivity" format="ascii">
0 1 5 4
4 5 9 8
8 9 13 12
1 2 6 5
5 6 10 9
9 10 14 13
2 3 7 6
6 7 11 10
10 11 15 14

        </DataArray>
        <DataArray type="Int32" Name="offsets" format="ascii">
4 8 12 16 20 24 28 32 36 
        </DataArray>
        <DataArray type="UInt8" Name="types" format="ascii">
9 9 9 9 9 9 9 9 9 
        </DataArray>
      </Cells>
      <PointData>
        <DataArray type="Float64" Name="u">
          2.00000000e+02 2.01401008e+02 2.02066572e+02 1.99019108e+02 2.13888889e+02 2.14006090e+02 2.16666226e+02 2.20987048e+02 2.22222222e+02 2.19174387e+02 2.17479735e+02 2.17027986e+02 2.25000000e+02 2.25000000e+02 2.25000000e+02 2.25000000e+02 
        </DataArray>
        <DataArray type="Float64" Name="v">
          0.00000000e+00 4.32520707e+00 1.01084246e+01 2.08081125e+01 0.00000000e+00 1.86706590e+00 3.31905392e+00 5.38069292e+00 0.00000000e+00 2.81883622e+00 5.26813233e+00 7.47597945e+00 0.00000000e+00 0.00000000e+00 0.00000000e+00 0.00000000e+00 
        </DataArray>
        <DataArray type="Float64" Name="p">
          4.91233445e+04 4.84468294e+04 4.77703144e+04 4.70937994e+04 4.85444569e+04 4.80934468e+04 4.76424368e+04 4.71914268e+04 4.79655692e+04 4.77400642e+04 4.75145592e+04 4.72890542e+04 4.73866816e+04 4.73866816e+04 4.73866816e+04 4.73866816e+04 
        </DataArray>
      </PointData>
    </Piece>
    <Piece NumberOfPoints="16" NumberOfCells="9">
      <Points>
        <DataArray type="Float64" NumberOfComponents="3" format="ascii">
          0.00000000e+00 1.50000000e+00 0.00000000e+00 
1.66666672e-01 1.50000000e+00 0.00000000e+00 
3.33333343e-01 1.50000000e+00 0.00000000e+00 
5.00000000e-01 1.50000000e+00 0.00000000e+00 
1.66666672e-01 1.66666663e+00 0.00000000e+00 
2.77777791e-01 1.66666663e+00 0.00000000e+00 
3.88888896e-01 1.66666663e+00 0.00000000e+00 
5.00000000e-01 1.66666663e+00 0.00000000e+00 
3.33333343e-01 1.83333337e+00 0.00000000e+00 
3.88888896e-01 1.83333337e+00 0.00000000e+00 
4.44444448e-01 1.83333337e+00 0.00000000e+00 
5.00000000e-01 1.83333337e+00 0.00000000e+00 
5.00000000e-01 2.00000000e+00 0.00000000e+00 
5.00000000e-01 2.00000000e+00 0.00000000e+00 
5.00000000e-01 2.00000000e+00 0.00000000e+00 
5.00000000e-01 2.00000000e+00 0.00000000e+00 

        </DataArray>
      </Points>
      <Cells>
        <DataArray type="Int32" Name="connectivity" format="ascii">
0 1 5 4
4 5 9 8
8 9 13 12
1 2 6 5
5 6 10 9
9 10 14 13
2 3 7 6
6 7 11 10
10 11 15 14

        </DataArray>
        <DataArray type="Int32" Name="offsets" format="ascii">
4 8 12 16 20 24 28 32 36 
        </DataArray>
        <DataArray type="UInt8" Name="types" format="ascii">
9 9 9 9 9 9 9 9 9 
        </DataArray>
      </Cells>
      <PointData>
        <DataArray type="Float64" Name="u">
          2.25000000e+02 2.25687454e+02 2.39782400e+02 1.60889763e+02 2.17062072e+02 2.16011330e+02 2.36700489e+02 2.47605082e+02 2.20935166e+02 2.16395315e+02 2.21235693e+02 2.31515742e+02 1.99028920e+02 1.99028920e+02 1.99028920e+02 1.99028920e+02 
        </DataArray>
        <DataArray type="Float64" Name="v">
          0.00000000e+00 -2.18675696e-02 1.74404913e-01 -3.45371721e-01 -7.42314898e+00 2.33274133e+01 6.40836257e+00 -5.84570978e+01 -5.37542938e+00 5.23772919e+00 -8.00815648e+00 -4.51476860e+01 -2.07525451e+01 -2.07525451e+01 -2.07525451e+01 -2.07525451e+01 
        </DataArray>
        <DataArray type="Float64" Name="p">
          5.20974500e+04 4.91641837e+04 4.62309173e+04 4.32976510e+04 4.98150521e+04 4.78595412e+04 4.59040304e+04 4.39485195e+04 4.75326543e+04 4.65548988e+04 4.55771434e+04 4.45993880e+04 4.52502564e+04 4.52502564e+04 4.52502564e+04 4.52502564e+04 
        </DataArray>
      </PointData>
    </Piece>
    <Piece NumberOfPoints="16" NumberOfCells="9">
      <Points>
        <DataArray type="Float64" NumberOfComponents="3" format="ascii">
          0.00000000e+00 2.00000000e+00 0.00000000e+00 
0.00000000e+00 1.83333337e+00 0.00000000e+00 
0.00000000e+00 1.66666663e+00 0.00000000e+00 
0.00000000e+00 1.50000000e+00 0.00000000e+00 
1.66666672e-01 2.00000000e+00 0.00000000e+00 
1.66666672e-01 1.88888884e+00 0.00000000e+00 
1.66666672e-01 1.77777779e+00 0.00000000e+00 
1.66666672e-01 1.66666663e+00 0.00000000e+00 
3.33333343e-01 2.00000000e+00 0.00000000e+00 
3.33333343e-01 1.94444442e+00 0.00000000e+00 
3.33333343e-01 1.88888884e+00 0.00000000e+00 
3.33333343e-01 1.83333337e+00 0.00000000e+00 
5.00000000e-01 2.00000000e+00 0.00000000e+00 
5.00000000e-01 2.00000000e+00 0.00000000e+00 
5.00000000e-01 2.00000000e+00 0.00000000e+00 
5.00000000e-01 2.00000000e+00 0.00000000e+00 

        </DataArray>
      </Points>
      <Cells>
        <DataArray type="Int32" Name="connectivity" format="ascii">
0 1 5 4
4 5 9 8
8 9 13 12
1 2 6 5
5 6 10 9
9 10 14 13
2 3 7 6
6 7 11 10
10 11 15 14

        </DataArray>
        <DataArray type="Int32" Name="offsets" format="ascii">
4 8 12 16 20 24 28 32 36 
        </DataArray>
        <DataArray type="UInt8" Name="types" format="ascii">
9 9 9 9 9 9 9 9 9 
        </DataArray>
      </Cells>
      <PointData>
        <DataArray type="Float64" Name="u">
          2.00000000e+02 2.13888889e+02 2.22222222e+02 2.25000000e+02 2.01417922e+02 2.11805669e+02 2.17020385e+02 2.17062072e+02 2.02094737e+02 2.10344111e+02 2.16624254e+02 2.20935166e+02 1.99028920e+02 1.99028920e+02 1.99028920e+02 1.99028920e+02 
        </DataArray>
        <DataArray type="Float64" Name="v">
          0.00000000e+00 0.00000000e+00 0.00000000e+00 0.00000000e+00 -4.29759768e+00 -2.40522345e+00 -3.44707388e+00 -7.42314898e+00 -1.00634143e+01 -7.03364036e+00 -5.47097870e+00 -5.37542938e+00 -2.07525451e+01 -2.07525451e+01 -2.07525451e+01 -2.07525451e+01 
        </DataArray>
        <DataArray type="Float64" Name="p">
          4.90897356e+04 4.85174261e+04 4.79451166e+04 4.73728070e+04 4.84118030e+04 4.80302633e+04 4.76487236e+04 4.72671839e+04 4.77338703e+04 4.75431005e+04 4.73523306e+04 4.71615608e+04 4.70559377e+04 4.70559377e+04 4.70559377e+04 4.70559377e+04 
        </DataArray>
      </PointData>
    </Piece>
    <Piece NumberOfPoints="16" NumberOfCells="9">
      <Points>
        <DataArray type="Float64" NumberOfComponents="3" format="ascii">
          5.00000000e-01 3.00000000e+00 0.00000000e+00 
3.33333343e-01 3.00000000e+00 0.00000000e+00 
1.66666672e-01 3.00000000e+00 0.00000000e+00 
0.00000000e+00 3.00000000e+00 0.00000000e+00 
5.00000000e-01 2.66666675e+00 0.00000000e+00 
3.88888896e-01 2.66666675e+00 0.00000000e+00 
2.77777791e-01 2.66666675e+00 0.00000000e+00 
1.66666672e-01 2.66666675e+00 0.00000000e+00 
5.00000000e-01 2.33333325e+00 0.00000000e+00 
4.44444448e-01 2.33333325e+00 0.00000000e+00 
3.88888896e-01 2.33333325e+00 0.00000000e+00 
3.33333343e-01 2.33333325e+00 0.00000000e+00 
5.00000000e-01 2.00000000e+00 0.00000000e+00 
5.00000000e-01 2.00000000e+00 0.00000000e+00 
5.00000000e-01 2.00000000e+00 0.00000000e+00 
5.00000000e-01 2.00000000e+00 0.00000000e+00 

        </DataArray>
      </Points>
      <Cells>
        <DataArray type="Int32" Name="connectivity" format="ascii">
0 1 5 4
4 5 9 8
8 9 13 12
1 2 6 5
5 6 10 9
9 10 14 13
2 3 7 6
6 7 11 10
10 11 15 14

        </DataArray>
        <DataArray type="Int32" Name="offsets" format="ascii">
4 8 12 16 20 24 28 32 36 
        </DataArray>
        <DataArray type="UInt8" Name="types" format="ascii">
9 9 9 9 9 9 9 9 9 
        </DataArray>
      </Cells>
      <PointData>
        <DataArray type="Float64" Name="u">
          0.00000000e+00 0.00000000e+00 0.00000000e+00 0.00000000e+00 7.23934383e+01 8.11219262e+01 8.74987340e+01 9.15238617e+01 1.61735436e+02 1.60632632e+02 1.58353988e+02 1.54899504e+02 1.99028920e+02 1.99028920e+02 1.99028920e+02 1.99028920e+02 
        </DataArray>
        <DataArray type="Float64" Name="v">
          0.00000000e+00 0.00000000e+00 0.00000000e+00 0.00000000e+00 -4.97544294e+01 -1.77998224e+01 -4.71821001e+00 -1.05095923e+01 -4.10706032e+01 -2.03311965e+01 -9.02828705e+00 -7.16187493e+00 -2.07525451e+01 -2.07525451e+01 -2.07525451e+01 -2.07525451e+01 
        </DataArray>
        <DataArray type="Float64" Name="p">
          5.14283118e+04 5.18672824e+04 5.23062529e+04 5.27452235e+04 5.02557144e+04 5.05483614e+04 5.08410085e+04 5.11336555e+04 4.90831169e+04 4.92294405e+04 4.93757640e+04 4.95220875e+04 4.79105195e+04 4.79105195e+04 4.79105195e+04 4.79105195e+04 
        </DataArray>
      </PointData>
    </Piece>
    <Piece NumberOfPoints="16" NumberOfCells="9">
      <Points>
        <DataArray type="Float64" NumberOfComponents="3" format="ascii">
          0.00000000e+00 3.00000000e+00 0.00000000e+00 
0.00000000e+00 2.66666675e+00 0.00000000e+00 
0.00000000e+00 2.33333325e+00 0.00000000e+00 
0.00000000e+00 2.00000000e+00 0.00000000e+00 
1.66666672e-01 2.66666675e+00 0.00000000e+00 
1.66666672e-01 2.44444442e+00 0.00000000e+00 
1.66666672e-01 2.22222233e+00 0.00000000e+00 
1.66666672e-01 2.00000000e+00 0.00000000e+00 
3.33333343e-01 2.33333325e+00 0.00000000e+00 
3.33333343e-01 2.22222233e+00 0.00000000e+00 
3.33333343e-01 2.11111116e+00 0.00000000e+00 
3.33333343e-01 2.00000000e+00 0.00000000e+00 
5.00000000e-01 2.00000000e+00 0.00000000e+00 
5.00000000e-01 2.00000000e+00 0.00000000e+00 
5.00000000e-01 2.00000000e+00 0.00000000e+00 
5.00000000e-01 2.00000000e+00 0.00000000e+00 

        </DataArray>
      </Points>
      <Cells>
        <DataArray type="Int32" Name="connectivity" format="ascii">
0 1 5 4
4 5 9 8
8 9 13 12
1 2 6 5
5 6 10 9
9 10 14 13
2 3 7 6
6 7 11 10
10 11 15 14

        </DataArray>
        <DataArray type="Int32" Name="offsets" format="ascii">
4 8 12 16 20 24 28 32 36 
        </DataArray>
        <DataArray type="UInt8" Name="types" format="ascii">
9 9 9 9 9 9 9 9 9 
        </DataArray>
      </Cells>
      <PointData>
        <DataArray type="Float64" Name="u">
          0.00000000e+00 8.88888889e+01 1.55555556e+02 2.00000000e+02 9.15238617e+01 1.35867562e+02 1.72498916e+02 2.01417922e+02 1.54899504e+02 1.72018286e+02 1.87750031e+02 2.02094737e+02 1.99028920e+02 1.99028920e+02 1.99028920e+02 1.99028920e+02 
        </DataArray>
        <DataArray type="Float64" Name="v">
          0.00000000e+00 0.00000000e+00 0.00000000e+00 0.00000000e+00 -1.05095923e+01 -5.96104050e+00 -3.89037564e+00 -4.29759768e+00 -7.16187493e+00 -6.89011128e+00 -7.85729109e+00 -1.00634143e+01 -2.07525451e+01 -2.07525451e+01 -2.07525451e+01 -2.07525451e+01 
        </DataArray>
        <DataArray type="Float64" Name="p">
          5.30408232e+04 5.16606888e+04 5.02805543e+04 4.89004199e+04 5.13671635e+04 5.04470739e+04 4.95269842e+04 4.86068946e+04 4.96935038e+04 4.92334589e+04 4.87734141e+04 4.83133693e+04 4.80198440e+04 4.80198440e+04 4.80198440e+04 4.80198440e+04 
        </DataArray>
      </PointData>
    </Piece>
    <Piece NumberOfPoints="16" NumberOfCells="9">
      <Points>
        <DataArray type="Float64" NumberOfComponents="3" format="ascii">
          2.00000000e+00 7.50000000e-01 0.00000000e+00 
2.00000000e+00 1.00000000e+00 0.00000000e+00 
2.00000000e+00 1.25000000e+00 0.00000000e+00 
2.00000000e+00 1.50000000e+00 0.00000000e+00 
1.83333337e+00 7.50000000e-01 0.00000000e+00 
1.83333337e+00 9.16666687e-01 0.00000000e+00 
1.83333337e+00 1.08333337e+00 0.00000000e+00 
1.83333337e+00 1.25000000e+00 0.00000000e+00 
1.66666663e+00 7.50000000e-01 0.00000000e+00 
1.66666663e+00 8.33333313e-01 0.00000000e+00 
1.66666663e+00 9.16666687e-01 0.00000000e+00 
1.66666663e+00 1.00000000e+00 0.00000000e+00 
1.50000000e+00 7.50000000e-01 0.00000000e+00 
1.50000000e+00 7.50000000e-01 0.00000000e+00 
1.50000000e+00 7.50000000e-01 0.00000000e+00 
1.50000000e+00 7.50000000e-01 0.00000000e+00 

        </DataArray>
      </Points>
      <Cells>
        <DataArray type="Int32" Name="connectivity" format="ascii">
0 1 5 4
4 5 9 8
8 9 13 12
1 2 6 5
5 6 10 9
9 10 14 13
2 3 7 6
6 7 11 10
10 11 15 14

        </DataArray>
        <DataArray type="Int32" Name="offsets" format="ascii">
4 8 12 16 20 24 28 32 36 
        </DataArray>
        <DataArray type="UInt8" Name="types" format="ascii">
9 9 9 9 9 9 9 9 9 
        </DataArray>
      </Cells>
      <PointData>
        <DataArray type="Float64" Name="u">
          0.00000000e+00 2.32352107e+02 4.19515280e+02 4.31052789e+02 0.00000000e+00 1.83294165e+02 3.25790936e+02 3.88842391e+02 0.00000000e+00 1.28199167e+02 2.41020628e+02 3.33633396e+02 0.00000000e+00 0.00000000e+00 0.00000000e+00 0.00000000e+00 
        </DataArray>
        <DataArray type="Float64" Name="v">
          0.00000000e+00 7.37528670e+00 -8.47654611e-01 4.06444950e+00 0.00000000e+00 3.83595794e+01 4.04203370e+01 1.46958353e+01 0.00000000e+00 4.60155257e+01 7.56147769e+01 8.98619489e+01 0.00000000e+00 0.00000000e+00 0.00000000e+00 0.00000000e+00 
        </DataArray>
        <DataArray type="Float64" Name="p">
          -3.48372858e+04 -2.45156606e+04 -1.41940353e+04 -3.87241006e+03 -3.58627141e+04 -2.89816306e+04 -2.21005471e+04 -1.52194636e+04 -3.68881424e+04 -3.34476006e+04 -3.00070589e+04 -2.65665171e+04 -3.79135706e+04 -3.79135706e+04 -3.79135706e+04 -3.79135706e+04 
        </DataArray>
      </PointData>
    </Piece>
    <Piece NumberOfPoints="16" NumberOfCells="9">
      <Points>
        <DataArray type="Float64" NumberOfComponents="3" format="ascii">
          2.00000000e+00 1.50000000e+00 0.00000000e+00 
1.83333337e+00 1.50000000e+00 0.00000000e+00 
1.66666663e+00 1.50000000e+00 0.00000000e+00 
1.50000000e+00 1.50000000e+00 0.00000000e+00 
1.83333337e+00 1.25000000e+00 0.00000000e+00 
1.72222221e+00 1.25000000e+00 0.00000000e+00 
1.61111116e+00 1.25000000e+00 0.00000000e+00 
1.50000000e+00 1.25000000e+00 0.00000000e+00 
1.66666663e+00 1.00000000e+00 0.00000000e+00 
1.61111116e+00 1.00000000e+00 0.00000000e+00 
1.55555558e+00 1.00000000e+00 0.00000000e+00 
1.50000000e+00 1.00000000e+00 0.00000000e+00 
1.50000000e+00 7.50000000e-01 0.00000000e+00 
1.50000000e+00 7.50000000e-01 0.00000000e+00 
1.50000000e+00 7.50000000e-01 0.00000000e+00 
1.50000000e+00 7.50000000e-01 0.00000000e+00 

        </DataArray>
      </Points>
      <Cells>
        <DataArray type="Int32" Name="connectivity" format="ascii">
0 1 5 4
4 5 9 8
8 9 13 12
1 2 6 5
5 6 10 9
9 10 14 13
2 3 7 6
6 7 11 10
10 11 15 14

        </DataArray>
        <DataArray type="Int32" Name="offsets" format="ascii">
4 8 12 16 20 24 28 32 36 
        </DataArray>
        <DataArray type="UInt8" Name="types" format="ascii">
9 9 9 9 9 9 9 9 9 
        </DataArray>
      </Cells>
      <PointData>
        <DataArray type="Float64" Name="u">
          4.31052789e+02 3.96774670e+02 3.55033754e+02 3.32743949e+02 3.88842391e+02 3.93368044e+02 3.82624581e+02 3.64586494e+02 3.33633396e+02 3.36665791e+02 3.32892828e+02 3.23311318e+02 0.00000000e+00 0.00000000e+00 0.00000000e+00 0.00000000e+00 
        </DataArray>
        <DataArray type="Float64" Name="v">
          4.06444950e+00 2.11980150e+00 1.00326606e+00 1.24000065e+00 1.46958353e+01 2.21175647e+01 3.74039352e+01 6.07105490e+01 8.98619489e+01 1.04249585e+02 1.22477529e+02 1.44565231e+02 0.00000000e+00 0.00000000e+00 0.00000000e+00 0.00000000e+00 
        </DataArray>
        <DataArray type="Float64" Name="p">
          -1.02724839e+04 -4.39460712e+02 9.39356246e+03 1.92265856e+04 -1.77258251e+04 -1.11704763e+04 -4.61512753e+03 1.94022125e+03 -2.51791663e+04 -2.19014919e+04 -1.86238175e+04 -1.53461431e+04 -3.26325075e+04 -3.26325075e+04 -3.26325075e+04 -3.26325075e+04 
        </DataArray>
      </PointData>
    </Piece>
    <Piece NumberOfPoints="16" NumberOfCells="9">
      <Points>
        <DataArray type="Float64" NumberOfComponents="3" format="ascii">
          2.00000000e+00 1.50000000e+00 0.00000000e+00 
2.00000000e+00 1.75000000e+00 0.00000000e+00 
2.00000000e+00 2.00000000e+00 0.00000000e+00 
2.00000000e+00 2.25000000e+00 0.00000000e+00 
1.83333337e+00 1.75000000e+00 0.00000000e+00 
1.83333337e+00 1.91666663e+00 0.00000000e+00 
1.83333337e+00 2.08333325e+00 0.00000000e+00 
1.83333337e+00 2.25000000e+00 0.00000000e+00 
1.66666663e+00 2.00000000e+00 0.00000000e+00 
1.66666663e+00 2.08333325e+00 0.00000000e+00 
1.66666663e+00 2.16666675e+00 0.00000000e+00 
1.66666663e+00 2.25000000e+00 0.00000000e+00 
1.50000000e+00 2.25000000e+00 0.00000000e+00 
1.50000000e+00 2.25000000e+00 0.00000000e+00 
1.50000000e+00 2.25000000e+00 0.00000000e+00 
1.50000000e+00 2.25000000e+00 0.00000000e+00 

        </DataArray>
      </Points>
      <Cells>
        <DataArray type="Int32" Name="connectivity" format="ascii">
0 1 5 4
4 5 9 8
8 9 13 12
1 2 6 5
5 6 10 9
9 10 14 13
2 3 7 6
6 7 11 10
10 11 15 14

        </DataArray>
        <DataArray type="Int32" Name="offsets" format="ascii">
4 8 12 16 20 24 28 32 36 
        </DataArray>
        <DataArray type="UInt8" Name="types" format="ascii">
9 9 9 9 9 9 9 9 9 
        </DataArray>
      </Cells>
      <PointData>
        <DataArray type="Float64" Name="u">
          4.31052789e+02 4.22887679e+02 2.37876408e+02 0.00000000e+00 3.92124474e+02 3.28483722e+02 1.85530525e+02 0.00000000e+00 3.33654346e+02 2.40912250e+02 1.28163505e+02 0.00000000e+00 0.00000000e+00 0.00000000e+00 0.00000000e+00 0.00000000e+00 
        </DataArray>
        <DataArray type="Float64" Name="v">
          4.06444950e+00 2.04704856e+00 -4.99741243e+00 0.00000000e+00 -1.17374666e+01 -3.70603310e+01 -3.48336627e+01 0.00000000e+00 -8.71394494e+01 -7.26370224e+01 -4.38012669e+01 0.00000000e+00 0.00000000e+00 0.00000000e+00 0.00000000e+00 0.00000000e+00 
        </DataArray>
        <DataArray type="Float64" Name="p">
          -4.74704258e+03 -1.52498708e+04 -2.57526990e+04 -3.62555272e+04 -1.62360457e+04 -2.32379312e+04 -3.02398167e+04 -3.72417022e+04 -2.77250489e+04 -3.12259916e+04 -3.47269343e+04 -3.82278771e+04 -3.92140520e+04 -3.92140520e+04 -3.92140520e+04 -3.92140520e+04 
        </DataArray>
      </PointData>
    </Piece>
    <Piece NumberOfPoints="16" NumberOfCells="9">
      <Points>
        <DataArray type="Float64" NumberOfComponents="3" format="ascii">
          1.50000000e+00 2.25000000e+00 0.00000000e+00 
1.50000000e+00 2.00000000e+00 0.00000000e+00 
1.50000000e+00 1.75000000e+00 0.00000000e+00 
1.50000000e+00 1.50000000e+00 0.00000000e+00 
1.66666663e+00 2.00000000e+00 0.00000000e+00 
1.66666663e+00 1.83333337e+00 0.00000000e+00 
1.66666663e+00 1.66666663e+00 0.00000000e+00 
1.66666663e+00 1.50000000e+00 0.00000000e+00 
1.83333337e+00 1.75000000e+00 0.00000000e+00 
1.83333337e+00 1.66666663e+00 0.00000000e+00 
1.83333337e+00 1.58333337e+00 0.00000000e+00 
1.83333337e+00 1.50000000e+00 0.00000000e+00 
2.00000000e+00 1.50000000e+00 0.00000000e+00 
2.00000000e+00 1.50000000e+00 0.00000000e+00 
2.00000000e+00 1.50000000e+00 0.00000000e+00 
2.00000000e+00 1.50000000e+00 0.00000000e+00 

        </DataArray>
      </Points>
      <Cells>
        <DataArray type="Int32" Name="connectivity" format="ascii">
0 1 5 4
4 5 9 8
8 9 13 12
1 2 6 5
5 6 10 9
9 10 14 13
2 3 7 6
6 7 11 10
10 11 15 14

        </DataArray>
        <DataArray type="Int32" Name="offsets" format="ascii">
4 8 12 16 20 24 28 32 36 
        </DataArray>
        <DataArray type="UInt8" Name="types" format="ascii">
9 9 9 9 9 9 9 9 9 
        </DataArray>
      </Cells>
      <PointData>
        <DataArray type="Float64" Name="u">
          0.00000000e+00 3.24141926e+02 3.66130963e+02 3.32743949e+02 3.33654346e+02 3.93122682e+02 3.79826748e+02 3.55033754e+02 3.92124474e+02 3.96153553e+02 3.95150818e+02 3.96774670e+02 4.31052789e+02 4.31052789e+02 4.31052789e+02 4.31052789e+02 
        </DataArray>
        <DataArray type="Float64" Name="v">
          0.00000000e+00 -1.42938083e+02 -6.04975696e+01 1.24000065e+00 -8.71394494e+01 -5.59662422e+01 -2.28098746e+00 1.00326606e+00 -1.17374666e+01 9.70570900e+00 1.73628421e+01 2.11980150e+00 4.06444950e+00 4.06444950e+00 4.06444950e+00 4.06444950e+00 
        </DataArray>
        <DataArray type="Float64" Name="p">
          -3.34480839e+04 -1.58642414e+04 1.71960104e+03 1.93034435e+04 -2.61375264e+04 -1.44149648e+04 -2.69240314e+03 9.03015850e+03 -1.88269689e+04 -1.29656881e+04 -7.10440731e+03 -1.24312649e+03 -1.15164115e+04 -1.15164115e+04 -1.15164115e+04 -1.15164115e+04 
        </DataArray>
      </PointData>
    </Piece>
    <Piece NumberOfPoints="16" NumberOfCells="9">
      <Points>
        <DataArray type="Float64" NumberOfComponents="3" format="ascii">
          3.00000000e+00 0.00000000e+00 0.00000000e+00 
3.00000000e+00 2.50000000e-01 0.00000000e+00 
3.00000000e+00 5.00000000e-01 0.00000000e+00 
3.00000000e+00 7.50000000e-01 0.00000000e+00 
2.66666675e+00 0.00000000e+00 0.00000000e+00 
2.66666675e+00 1.66666672e-01 0.00000000e+00 
2.66666675e+00 3.33333343e-01 0.00000000e+00 
2.66666675e+00 5.00000000e-01 0.00000000e+00 
2.33333325e+00 0.00000000e+00 0.00000000e+00 
2.33333325e+00 8.33333358e-02 0.00000000e+00 
2.33333325e+00 1.66666672e-01 0.00000000e+00 
2.33333325e+00 2.50000000e-01 0.00000000e+00 
2.00000000e+00 0.00000000e+00 0.00000000e+00 
2.00000000e+00 0.00000000e+00 0.00000000e+00 
2.00000000e+00 0.00000000e+00 0.00000000e+00 
2.00000000e+00 0.00000000e+00 0.00000000e+00 

        </DataArray>
      </Points>
      <Cells>
        <DataArray type="Int32" Name="connectivity" format="ascii">
0 1 5 4
4 5 9 8
8 9 13 12
1 2 6 5
5 6 10 9
9 10 14 13
2 3 7 6
6 7 11 10
10 11 15 14

        </DataArray>
        <DataArray type="Int32" Name="offsets" format="ascii">
4 8 12 16 20 24 28 32 36 
        </DataArray>
        <DataArray type="UInt8" Name="types" format="ascii">
9 9 9 9 9 9 9 9 9 
        </DataArray>
      </Cells>
      <PointData>
        <DataArray type="Float64" Name="u">
          0.00000000e+00 -3.19187879e+01 -3.20499227e+00 9.01320214e+01 0.00000000e+00 -2.10800427e+01 -2.24654154e+01 -2.97370777e+00 0.00000000e+00 -8.52721546e+00 -1.39440496e+01 -1.61027012e+01 0.00000000e+00 0.00000000e+00 0.00000000e+00 0.00000000e+00 
        </DataArray>
        <DataArray type="Float64" Name="v">