<?xml version="1.0"?>
<VTKFile type="UnstructuredGrid" version="0.1" byte_order="LittleEndian">
  <UnstructuredGrid>
    <Piece NumberOfPoints="16" NumberOfCells="9">
      <Points>
        <DataArray type="Float64" NumberOfComponents="3" format="ascii">
          0.00000000e+00 0.00000000e+00 0.00000000e+00 
1.66666672e-01 0.00000000e+00 0.00000000e+00 
3.33333343e-01 0.00000000e+00 0.00000000e+00 
5.00000000e-01 0.00000000e+00 0.00000000e+00 
1.66666672e-01 3.33333343e-01 0.00000000e+00 
2.77777791e-01 3.33333343e-01 0.00000000e+00 
3.88888896e-01 3.33333343e-01 0.00000000e+00 
5.00000000e-01 3.33333343e-01 0.00000000e+00 
3.33333343e-01 6.66666687e-01 0.00000000e+00 
3.88888896e-01 6.66666687e-01 0.00000000e+00 
4.44444448e-01 6.66666687e-01 0.00000000e+00 
5.00000000e-01 6.66666687e-01 0.00000000e+00 
5.00000000e-01 1.00000000e+00 0.00000000e+00 
5.00000000e-01 1.00000000e+00 0.00000000e+00 
5.00000000e-01 1.00000000e+00 0.00000000e+00 
5.00000000e-01 1.00000000e+00 0.00000000e+00 

        </DataArray>
      </Points>
      <Cells>
        <DataArray type="Int32" Name="connectivity" format="ascii">
0 1 5 4
4 5 9 8
8 9 13 12
1 2 6 5
5 6 10 9
9 10 14 13
2 3 7 6
6 7 11 10
10 11 15 14

        </DataArray>
        <DataArray type="Int32" Name="offsets" format="ascii">
4 8 12 16 20 24 28 32 36 
        </DataArray>
        <DataArray type="UInt8" Name="types" format="ascii">
9 9 9 9 9 9 9 9 9 
        </DataArray>
      </Cells>
      <PointData>
        <DataArray type="Float64" Name="u">
          0.00000000e+00 0.00000000e+00 0.00000000e+00 0.00000000e+00 9.07903208e+01 8.75709013e+01 8.15869032e+01 7.28383264e+01 1.54560847e+02 1.58042334e+02 1.60141531e+02 1.60858439e+02 2.00125235e+02 2.00125235e+02 2.00125235e+02 2.00125235e+02 
        </DataArray>
        <DataArray type="Float64" Name="v">
          0.00000000e+00 0.00000000e+00 0.00000000e+00 0.00000000e+00 8.60706420e+00 5.66069205e+00 1.78241825e+01 4.50975357e+01 7.86018820e+00 1.05296939e+01 2.07541309e+01 3.85334992e+01 2.05246526e+01 2.05246526e+01 2.05246526e+01 2.05246526e+01 
        </DataArray>
        <DataArray type="Float64" Name="p">
          5.22198562e+04 5.16617551e+04 5.11036540e+04 5.05455529e+04 5.05857852e+04 5.02137178e+04 4.98416504e+04 4.94695830e+04 4.89517142e+04 4.87656805e+04 4.85796468e+04 4.83936131e+04 4.73176432e+04 4.73176432e+04 4.73176432e+04 4.73176432e+04 
        </DataArray>
      </PointData>
    </Piece>
    <Piece NumberOfPoints="16" NumberOfCells="9">
      <Points>
        <DataArray type="Float64" NumberOfComponents="3" format="ascii">
          0.00000000e+00 1.00000000e+00 0.00000000e+00 
0.00000000e+00 6.66666687e-01 0.00000000e+00 
0.00000000e+00 3.33333343e-01 0.00000000e+00 
0.00000000e+00 0.00000000e+00 0.00000000e+00 
1.66666672e-01 1.00000000e+00 0.00000000e+00 
1.66666672e-01 7.77777791e-01 0.00000000e+00 
1.66666672e-01 5.55555582e-01 0.00000000e+00 
1.66666672e-01 3.33333343e-01 0.00000000e+00 
3.33333343e-01 1.00000000e+00 0.00000000e+00 
3.33333343e-01 8.88888896e-01 0.00000000e+00 
3.33333343e-01 7.77777791e-01 0.00000000e+00 
3.33333343e-01 6.66666687e-01 0.00000000e+00 
5.00000000e-01 1.00000000e+00 0.00000000e+00 
5.00000000e-01 1.00000000e+00 0.00000000e+00 
5.00000000e-01 1.00000000e+00 0.00000000e+00 
5.00000000e-01 1.00000000e+00 0.00000000e+00 

        </DataArray>
      </Points>
      <Cells>
        <DataArray type="Int32" Name="connectivity" format="ascii">
0 1 5 4
4 5 9 8
8 9 13 12
1 2 6 5
5 6 10 9
9 10 14 13
2 3 7 6
6 7 11 10
10 11 15 14

        </DataArray>
        <DataArray type="Int32" Name="offsets" format="ascii">
4 8 12 16 20 24 28 32 36 
        </DataArray>
        <DataArray type="UInt8" Name="types" format="ascii">
9 9 9 9 9 9 9 9 9 
        </DataArray>
      </Cells>
      <PointData>
        <DataArray type="Float64" Name="u">
          2.00000000e+02 1.55555556e+02 8.88888889e+01 0.00000000e+00 2.01419806e+02 1.72508955e+02 1.35632460e+02 9.07903208e+01 2.01934525e+02 1.87656985e+02 1.71865759e+02 1.54560847e+02 2.00125235e+02 2.00125235e+02 2.00125235e+02 2.00125235e+02 
        </DataArray>
        <DataArray type="Float64" Name="v">
          0.00000000e+00 0.00000000e+00 0.00000000e+00 0.00000000e+00 4.35285787e+00 4.00857996e+00 5.42664873e+00 8.60706420e+00 1.02174586e+01 8.55052844e+00 7.76477165e+00 7.86018820e+00 2.05246526e+01 2.05246526e+01 2.05246526e+01 2.05246526e+01 
        </DataArray>
        <DataArray type="Float64" Name="p">
          4.82534522e+04 4.96497310e+04 5.10460099e+04 5.24422887e+04 4.79632609e+04 4.88941135e+04 4.98249660e+04 5.07558186e+04 4.76730696e+04 4.81384959e+04 4.86039222e+04 4.90693485e+04 4.73828783e+04 4.73828783e+04 4.73828783e+04 4.73828783e+04 
        </DataArray>
      </PointData>
    </Piece>
    <Piece NumberOfPoints="16" NumberOfCells="9">
      <Points>
        <DataArray type="Float64" NumberOfComponents="3" format="ascii">
          5.00000000e-01 1.50000000e+00 0.00000000e+00 
3.33333343e-01 1.50000000e+00 0.00000000e+00 
1.66666672e-01 1.50000000e+00 0.00000000e+00 
0.00000000e+00 1.50000000e+00 0.00000000e+00 
5.00000000e-01 1.33333337e+00 0.00000000e+00 
3.88888896e-01 1.33333337e+00 0.00000000e+00 
2.77777791e-01 1.33333337e+00 0.00000000e+00 
1.66666672e-01 1.33333337e+00 0.00000000e+00 
5.00000000e-01 1.16666663e+00 0.00000000e+00 
4.44444448e-01 1.16666663e+00 0.00000000e+00 
3.88888896e-01 1.16666663e+00 0.00000000e+00 
3.33333343e-01 1.16666663e+00 0.00000000e+00 
5.00000000e-01 1.00000000e+00 0.00000000e+00 
5.00000000e-01 1.00000000e+00 0.00000000e+00 
5.00000000e-01 1.00000000e+00 0.00000000e+00 
5.00000000e-01 1.00000000e+00 0.00000000e+00 

        </DataArray>
      </Points>
      <Cells>
        <DataArray type="Int32" Name="connectivity" format="ascii">
0 1 5 4
4 5 9 8
8 9 13 12
1 2 6 5
5 6 10 9
9 10 14 13
2 3 7 6
6 7 11 10
10 11 15 14

        </DataArray>
        <DataArray type="Int32" Name="offsets" format="ascii">
4 8 12 16 20 24 28 32 36 
        </DataArray>
        <DataArray type="UInt8" Name="types" format="ascii">
9 9 9 9 9 9 9 9 9 
        </DataArray>
      </Cells>
      <PointData>
        <DataArray type="Float64" Name="u">
          1.69842909e+02 2.34127749e+02 2.27678215e+02 2.25000000e+02 2.45003217e+02 2.33887057e+02 2.17917034e+02 2.19168909e+02 2.31007217e+02 2.21412501e+02 2.17250228e+02 2.21279869e+02 2.00125235e+02 2.00125235e+02 2.00125235e+02 2.00125235e+02 
        </DataArray>
        <DataArray type="Float64" Name="v">
          -4.79062837e-01 5.80023310e-03 1.03841268e-02 0.00000000e+00 5.09148070e+01 -4.79442683e+00 -2.02013166e+01 4.83200755e+00 4.20901384e+01 9.63611037e+00 -2.61338127e+00 5.35889719e+00 2.05246526e+01 2.05246526e+01 2.05246526e+01 2.05246526e+01 
        </DataArray>
        <DataArray type="Float64" Name="p">
          4.41967973e+04 4.63697790e+04 4.85427608e+04 5.07157425e+04 4.41833676e+04 4.56320220e+04 4.70806765e+04 4.85293310e+04 4.41699378e+04 4.48942650e+04 4.56185923e+04 4.63429195e+04 4.41565080e+04 4.41565080e+04 4.41565080e+04 4.41565080e+04 
        </DataArray>
      </PointData>
    </Piece>
    <Piece NumberOfPoints="16" NumberOfCells="9">
      <Points>
        <DataArray type="Float64" NumberOfComponents="3" format="ascii">
          0.00000000e+00 1.00000000e+00 0.00000000e+00 
1.66666672e-01 1.00000000e+00 0.00000000e+00 
3.33333343e-01 1.00000000e+00 0.00000000e+00 
5.00000000e-01 1.00000000e+00 0.00000000e+00 
0.00000000e+00 1.16666663e+00 0.00000000e+00 
1.11111112e-01 1.16666663e+00 0.00000000e+00 
2.22222224e-01 1.16666663e+00 0.00000000e+00 
3.33333343e-01 1.16666663e+00 0.00000000e+00 
0.00000000e+00 1.33333337e+00 0.00000000e+00 
5.55555560e-02 1.33333337e+00 0.00000000e+00 
1.11111112e-01 1.33333337e+00 0.00000000e+00 
1.66666672e-01 1.33333337e+00 0.00000000e+00 
0.00000000e+00 1.50000000e+00 0.00000000e+00 
0.00000000e+00 1.50000000e+00 0.00000000e+00 
0.00000000e+00 1.50000000e+00 0.00000000e+00 
0.00000000e+00 1.50000000e+00 0.00000000e+00 

        </DataArray>
      </Points>
      <Cells>
        <DataArray type="Int32" Name="connectivity" format="ascii">
0 1 5 4
4 5 9 8
8 9 13 12
1 2 6 5
5 6 10 9
9 10 14 13
2 3 7 6
6 7 11 10
10 11 15 14

        </DataArray>
        <DataArray type="Int32" Name="offsets" format="ascii">
4 8 12 16 20 24 28 32 36 
        </DataArray>
        <DataArray type="UInt8" Name="types" format="ascii">
9 9 9 9 9 9 9 9 9 
        </DataArray>
      </Cells>
      <PointData>
        <DataArray type="Float64" Name="u">
          2.00000000e+02 2.01419806e+02 2.01934525e+02 2.00125235e+02 2.13888889e+02 2.14142066e+02 2.16745866e+02 2.21279869e+02 2.22222222e+02 2.19946092e+02 2.18945838e+02 2.19168909e+02 2.25000000e+02 2.25000000e+02 2.25000000e+02 2.25000000e+02 
        </DataArray>
        <DataArray type="Float64" Name="v">
          0.00000000e+00 4.35285787e+00 1.02174586e+01 2.05246526e+01 0.00000000e+00 1.77504062e+00 3.27187297e+00 5.35889719e+00 0.00000000e+00 1.88156141e+00 3.45604725e+00 4.83200755e+00 0.00000000e+00 0.00000000e+00 0.00000000e+00 0.00000000e+00 
        </DataArray>
        <DataArray type="Float64" Name="p">
          4.84293591e+04 4.77064120e+04 4.69834649e+04 4.62605179e+04 4.78868783e+04 4.74049135e+04 4.69229488e+04 4.64409841e+04 4.73443974e+04 4.71034151e+04 4.68624327e+04 4.66214503e+04 4.68019166e+04 4.68019166e+04 4.68019166e+04 4.68019166e+04 
        </DataArray>
      </PointData>
    </Piece>
    <Piece NumberOfPoints="16" NumberOfCells="9">
      <Points>
        <DataArray type="Float64" NumberOfComponents="3" format="ascii">
          0.00000000e+00 1.50000000e+00 0.00000000e+00 
1.66666672e-01 1.50000000e+00 0.00000000e+00 
3.33333343e-01 1.50000000e+00 0.00000000e+00 
5.00000000e-01 1.50000000e+00 0.00000000e+00 
1.66666672e-01 1.66666663e+00 0.00000000e+00 
2.77777791e-01 1.66666663e+00 0.00000000e+00 
3.88888896e-01 1.66666663e+00 0.00000000e+00 
5.00000000e-01 1.66666663e+00 0.00000000e+00 
3.33333343e-01 1.83333337e+00 0.00000000e+00 
3.88888896e-01 1.83333337e+00 0.00000000e+00 
4.44444448e-01 1.83333337e+00 0.00000000e+00 
5.00000000e-01 1.83333337e+00 0.00000000e+00 
5.00000000e-01 2.00000000e+00 0.00000000e+00 
5.00000000e-01 2.00000000e+00 0.00000000e+00 
5.00000000e-01 2.00000000e+00 0.00000000e+00 
5.00000000e-01 2.00000000e+00 0.00000000e+00 

        </DataArray>
      </Points>
      <Cells>
        <DataArray type="Int32" Name="connectivity" format="ascii">
0 1 5 4
4 5 9 8
8 9 13 12
1 2 6 5
5 6 10 9
9 10 14 13
2 3 7 6
6 7 11 10
10 11 15 14

        </DataArray>
        <DataArray type="Int32" Name="offsets" format="ascii">
4 8 12 16 20 24 28 32 36 
        </DataArray>
        <DataArray type="UInt8" Name="types" format="ascii">
9 9 9 9 9 9 9 9 9 
        </DataArray>
      </Cells>
      <PointData>
        <DataArray type="Float64" Name="u">
          2.25000000e+02 2.27678215e+02 2.34127749e+02 1.69842909e+02 2.19201373e+02 2.17993009e+02 2.33936200e+02 2.44955186e+02 2.21252865e+02 2.17244625e+02 2.21393128e+02 2.30938903e+02 2.00079936e+02 2.00079936e+02 2.00079936e+02 2.00079936e+02 
        </DataArray>
        <DataArray type="Float64" Name="v">
          0.00000000e+00 1.03841268e-02 5.80023310e-03 -4.79062837e-01 -4.84085433e+00 1.99928916e+01 4.65710296e+00 -5.09860901e+01 -5.46203315e+00 2.41380113e+00 -9.79346873e+00 -4.21010765e+01 -2.06843102e+01 -2.06843102e+01 -2.06843102e+01 -2.06843102e+01 
        </DataArray>
        <DataArray type="Float64" Name="p">
          5.07187058e+04 4.85392849e+04 4.63598639e+04 4.41804429e+04 4.85465709e+04 4.70936236e+04 4.56406763e+04 4.41877290e+04 4.63744360e+04 4.56479624e+04 4.49214887e+04 4.41950151e+04 4.42023011e+04 4.42023011e+04 4.42023011e+04 4.42023011e+04 
        </DataArray>
      </PointData>
    </Piece>
    <Piece NumberOfPoints="16" NumberOfCells="9">
      <Points>
        <DataArray type="Float64" NumberOfComponents="3" format="ascii">
          0.00000000e+00 2.00000000e+00 0.00000000e+00 
0.00000000e+00 1.83333337e+00 0.00000000e+00 
0.00000000e+00 1.66666663e+00 0.00000000e+00 
0.00000000e+00 1.50000000e+00 0.00000000e+00 
1.66666672e-01 2.00000000e+00 0.00000000e+00 
1.66666672e-01 1.88888884e+00 0.00000000e+00 
1.66666672e-01 1.77777779e+00 0.00000000e+00 
1.66666672e-01 1.66666663e+00 0.00000000e+00 
3.33333343e-01 2.00000000e+00 0.00000000e+00 
3.33333343e-01 1.94444442e+00 0.00000000e+00 
3.33333343e-01 1.88888884e+00 0.00000000e+00 
3.33333343e-01 1.83333337e+00 0.00000000e+00 
5.00000000e-01 2.00000000e+00 0.00000000e+00 
5.00000000e-01 2.00000000e+00 0.00000000e+00 
5.00000000e-01 2.00000000e+00 0.00000000e+00 
5.00000000e-01 2.00000000e+00 0.00000000e+00 

        </DataArray>
      </Points>
      <Cells>
        <DataArray type="Int32" Name="connectivity" format="ascii">
0 1 5 4
4 5 9 8
8 9 13 12
1 2 6 5
5 6 10 9
9 10 14 13
2 3 7 6
6 7 11 10
10 11 15 14

        </DataArray>
        <DataArray type="Int32" Name="offsets" format="ascii">
4 8 12 16 20 24 28 32 36 
        </DataArray>
        <DataArray type="UInt8" Name="types" format="ascii">
9 9 9 9 9 9 9 9 9 
        </DataArray>
      </Cells>
      <PointData>
        <DataArray type="Float64" Name="u">
          2.00000000e+02 2.13888889e+02 2.22222222e+02 2.25000000e+02 2.01424156e+02 2.11663819e+02 2.17589558e+02 2.19201373e+02 2.01935681e+02 2.09914420e+02 2.16353481e+02 2.21252865e+02 2.00079936e+02 2.00079936e+02 2.00079936e+02 2.00079936e+02 
        </DataArray>
        <DataArray type="Float64" Name="v">
          0.00000000e+00 0.00000000e+00 0.00000000e+00 0.00000000e+00 -4.38383327e+00 -2.69883695e+00 -2.85117731e+00 -4.84085433e+00 -1.02888261e+01 -7.76122681e+00 -6.15229581e+00 -5.46203315e+00 -2.06843102e+01 -2.06843102e+01 -2.06843102e+01 -2.06843102e+01 
        </DataArray>
        <DataArray type="Float64" Name="p">
          4.84700592e+04 4.79197540e+04 4.73694488e+04 4.68191437e+04 4.77457548e+04 4.73788847e+04 4.70120146e+04 4.66451444e+04 4.70214504e+04 4.68380153e+04 4.66545803e+04 4.64711452e+04 4.62971460e+04 4.62971460e+04 4.62971460e+04 4.62971460e+04 
        </DataArray>
      </PointData>
    </Piece>
    <Piece NumberOfPoints="16" NumberOfCells="9">
      <Points>
        <DataArray type="Float64" NumberOfComponents="3" format="ascii">
          5.00000000e-01 3.00000000e+00 0.00000000e+00 
3.33333343e-01 3.00000000e+00 0.00000000e+00 
1.66666672e-01 3.00000000e+00 0.00000000e+00 
0.00000000e+00 3.00000000e+00 0.00000000e+00 
5.00000000e-01 2.66666675e+00 0.00000000e+00 
3.88888896e-01 2.66666675e+00 0.00000000e+00 
2.77777791e-01 2.66666675e+00 0.00000000e+00 
1.66666672e-01 2.66666675e+00 0.00000000e+00 
5.00000000e-01 2.33333325e+00 0.00000000e+00 
4.44444448e-01 2.33333325e+00 0.00000000e+00 
3.88888896e-01 2.33333325e+00 0.00000000e+00 
3.33333343e-01 2.33333325e+00 0.00000000e+00 
5.00000000e-01 2.00000000e+00 0.00000000e+00 
5.00000000e-01 2.00000000e+00 0.00000000e+00 
5.00000000e-01 2.00000000e+00 0.00000000e+00 
5.00000000e-01 2.00000000e+00 0.00000000e+00 

        </DataArray>
      </Points>
      <Cells>
        <DataArray type="Int32" Name="connectivity" format="ascii">
0 1 5 4
4 5 9 8
8 9 13 12
1 2 6 5
5 6 10 9
9 10 14 13
2 3 7 6
6 7 11 10
10 11 15 14

        </DataArray>
        <DataArray type="Int32" Name="offsets" format="ascii">
4 8 12 16 20 24 28 32 36 
        </DataArray>
        <DataArray type="UInt8" Name="types" format="ascii">
9 9 9 9 9 9 9 9 9 
        </DataArray>
      </Cells>
      <PointData>
        <DataArray type="Float64" Name="u">
          0.00000000e+00 0.00000000e+00 0.00000000e+00 0.00000000e+00 7.28301379e+01 8.15803661e+01 8.75672584e+01 9.07908145e+01 1.60803947e+02 1.60096565e+02 1.58007515e+02 1.54536797e+02 2.00079936e+02 2.00079936e+02 2.00079936e+02 2.00079936e+02 
        </DataArray>
        <DataArray type="Float64" Name="v">
          0.00000000e+00 0.00000000e+00 0.00000000e+00 0.00000000e+00 -4.50402834e+01 -1.78270338e+01 -5.68407726e+00 -8.61141376e+00 -3.84999426e+01 -2.07584387e+01 -1.05520813e+01 -7.88087040e+00 -2.06843102e+01 -2.06843102e+01 -2.06843102e+01 -2.06843102e+01 
        </DataArray>
        <DataArray type="Float64" Name="p">
          5.05978037e+04 5.11551656e+04 5.17125276e+04 5.22698895e+04 4.95209669e+04 4.98925416e+04 5.02641162e+04 5.06356908e+04 4.84441302e+04 4.86299175e+04 4.88157048e+04 4.90014921e+04 4.73672934e+04 4.73672934e+04 4.73672934e+04 4.73672934e+04 
        </DataArray>
      </PointData>
    </Piece>
    <Piece NumberOfPoints="16" NumberOfCells="9">
      <Points>
        <DataArray type="Float64" NumberOfComponents="3" format="ascii">
          0.00000000e+00 3.00000000e+00 0.00000000e+00 
0.00000000e+00 2.66666675e+00 0.00000000e+00 
0.00000000e+00 2.33333325e+00 0.00000000e+00 
0.00000000e+00 2.00000000e+00 0.00000000e+00 
1.66666672e-01 2.66666675e+00 0.00000000e+00 
1.66666672e-01 2.44444442e+00 0.00000000e+00 
1.66666672e-01 2.22222233e+00 0.00000000e+00 
1.66666672e-01 2.00000000e+00 0.00000000e+00 
3.33333343e-01 2.33333325e+00 0.00000000e+00 
3.33333343e-01 2.22222233e+00 0.00000000e+00 
3.33333343e-01 2.11111116e+00 0.00000000e+00 
3.33333343e-01 2.00000000e+00 0.00000000e+00 
5.00000000e-01 2.00000000e+00 0.00000000e+00 
5.00000000e-01 2.00000000e+00 0.00000000e+00 
5.00000000e-01 2.00000000e+00 0.00000000e+00 
5.00000000e-01 2.00000000e+00 0.00000000e+00 

        </DataArray>
      </Points>
      <Cells>
        <DataArray type="Int32" Name="connectivity" format="ascii">
0 1 5 4
4 5 9 8
8 9 13 12
1 2 6 5
5 6 10 9
9 10 14 13
2 3 7 6
6 7 11 10
10 11 15 14

        </DataArray>
        <DataArray type="Int32" Name="offsets" format="ascii">
4 8 12 16 20 24 28 32 36 
        </DataArray>
        <DataArray type="UInt8" Name="types" format="ascii">
9 9 9 9 9 9 9 9 9 
        </DataArray>
      </Cells>
      <PointData>
        <DataArray type="Float64" Name="u">
          0.00000000e+00 8.88888889e+01 1.55555556e+02 2.00000000e+02 9.07908145e+01 1.35623979e+02 1.72501759e+02 2.01424156e+02 1.54536797e+02 1.71844981e+02 1.87644609e+02 2.01935681e+02 2.00079936e+02 2.00079936e+02 2.00079936e+02 2.00079936e+02 
        </DataArray>
        <DataArray type="Float64" Name="v">
          0.00000000e+00 0.00000000e+00 0.00000000e+00 0.00000000e+00 -8.61141376e+00 -5.43563299e+00 -4.02643950e+00 -4.38383327e+00 -7.88087040e+00 -7.80022868e+00 -8.60288060e+00 -1.02888261e+01 -2.06843102e+01 -2.06843102e+01 -2.06843102e+01 -2.06843102e+01 
        </DataArray>
        <DataArray type="Float64" Name="p">
          5.24973931e+04 5.10963906e+04 4.96953881e+04 4.82943856e+04 5.08071007e+04 4.98730991e+04 4.89390974e+04 4.80050957e+04 4.91168084e+04 4.86498076e+04 4.81828067e+04 4.77158059e+04 4.74265160e+04 4.74265160e+04 4.74265160e+04 4.74265160e+04 
        </DataArray>
      </PointData>
    </Piece>
    <Piece NumberOfPoints="16" NumberOfCells="9">
      <Points>
        <DataArray type="Float64" NumberOfComponents="3" format="ascii">
          2.00000000e+00 7.50000000e-01 0.00000000e+00 
2.00000000e+00 1.00000000e+00 0.00000000e+00 
2.00000000e+00 1.25000000e+00 0.00000000e+00 
2.00000000e+00 1.50000000e+00 0.00000000e+00 
1.83333337e+00 7.50000000e-01 0.00000000e+00 
1.83333337e+00 9.16666687e-01 0.00000000e+00 
1.83333337e+00 1.08333337e+00 0.00000000e+00 
1.83333337e+00 1.25000000e+00 0.00000000e+00 
1.66666663e+00 7.50000000e-01 0.00000000e+00 
1.66666663e+00 8.33333313e-01 0.00000000e+00 
1.66666663e+00 9.16666687e-01 0.00000000e+00 
1.66666663e+00 1.00000000e+00 0.00000000e+00 
1.50000000e+00 7.50000000e-01 0.00000000e+00 
1.50000000e+00 7.50000000e-01 0.00000000e+00 
1.50000000e+00 7.50000000e-01 0.00000000e+00 
1.50000000e+00 7.50000000e-01 0.00000000e+00 

        </DataArray>
      </Points>
      <Cells>
        <DataArray type="Int32" Name="connectivity" format="ascii">
0 1 5 4
4 5 9 8
8 9 13 12
1 2 6 5
5 6 10 9
9 10 14 13
2 3 7 6
6 7 11 10
10 11 15 14

        </DataArray>
        <DataArray type="Int32" Name="offsets" format="ascii">
4 8 12 16 20 24 28 32 36 
        </DataArray>
        <DataArray type="UInt8" Name="types" format="ascii">
9 9 9 9 9 9 9 9 9 
        </DataArray>
      </Cells>
      <PointData>
        <DataArray type="Float64" Name="u">
          0.00000000e+00 2.37995278e+02 4.16685599e+02 4.38009858e+02 0.00000000e+00 1.85720864e+02 3.25548865e+02 3.90428860e+02 0.00000000e+00 1.27150561e+02 2.37944129e+02 3.28748813e+02 0.00000000e+00 0.00000000e+00 0.00000000e+00 0.00000000e+00 
        </DataArray>
        <DataArray type="Float64" Name="v">
          0.00000000e+00 3.04975621e+00 3.73381841e-01 -2.72846935e-02 0.00000000e+00 3.18627237e+01 3.59182208e+01 1.45374063e+01 0.00000000e+00 4.05742155e+01 6.78810545e+01 8.22168811e+01 0.00000000e+00 0.00000000e+00 0.00000000e+00 0.00000000e+00 
        </DataArray>
        <DataArray type="Float64" Name="p">
          -3.66764186e+04 -2.66361466e+04 -1.65958745e+04 -6.55560249e+03 -3.77005457e+04 -3.10070310e+04 -2.43135163e+04 -1.76200016e+04 -3.87246727e+04 -3.53779154e+04 -3.20311580e+04 -2.86844007e+04 -3.97487998e+04 -3.97487998e+04 -3.97487998e+04 -3.97487998e+04 
        </DataArray>
      </PointData>
    </Piece>
    <Piece NumberOfPoints="16" NumberOfCells="9">
      <Points>
        <DataArray type="Float64" NumberOfComponents="3" format="ascii">
          2.00000000e+00 1.50000000e+00 0.00000000e+00 
1.83333337e+00 1.50000000e+00 0.00000000e+00 
1.66666663e+00 1.50000000e+00 0.00000000e+00 
1.50000000e+00 1.50000000e+00 0.00000000e+00 
1.83333337e+00 1.25000000e+00 0.00000000e+00 
1.72222221e+00 1.25000000e+00 0.00000000e+00 
1.61111116e+00 1.25000000e+00 0.00000000e+00 
1.50000000e+00 1.25000000e+00 0.00000000e+00 
1.66666663e+00 1.00000000e+00 0.00000000e+00 
1.61111116e+00 1.00000000e+00 0.00000000e+00 
1.55555558e+00 1.00000000e+00 0.00000000e+00 
1.50000000e+00 1.00000000e+00 0.00000000e+00 
1.50000000e+00 7.50000000e-01 0.00000000e+00 
1.50000000e+00 7.50000000e-01 0.00000000e+00 
1.50000000e+00 7.50000000e-01 0.00000000e+00 
1.50000000e+00 7.50000000e-01 0.00000000e+00 

        </DataArray>
      </Points>
      <Cells>
        <DataArray type="Int32" Name="connectivity" format="ascii">
0 1 5 4
4 5 9 8
8 9 13 12
1 2 6 5
5 6 10 9
9 10 14 13
2 3 7 6
6 7 11 10
10 11 15 14

        </DataArray>
        <DataArray type="Int32" Name="offsets" format="ascii">
4 8 12 16 20 24 28 32 36 
        </DataArray>
        <DataArray type="UInt8" Name="types" format="ascii">
9 9 9 9 9 9 9 9 9 
        </DataArray>
      </Cells>
      <PointData>
        <DataArray type="Float64" Name="u">
          4.38009858e+02 3.99387384e+02 3.59953900e+02 3.34607809e+02 3.90428860e+02 3.94692575e+02 3.85342769e+02 3.66793783e+02 3.28748813e+02 3.33099737e+02 3.30734013e+02 3.22203433e+02 0.00000000e+00 0.00000000e+00 0.00000000e+00 0.00000000e+00 
        </DataArray>
        <DataArray type="Float64" Name="v">
          -2.72846935e-02 1.81841765e-01 -4.21419680e-01 6.64692216e-02 1.45374063e+01 2.24654680e+01 3.74070268e+01 5.99260940e+01 8.22168811e+01 9.71271330e+01 1.15634399e+02 1.37809180e+02 0.00000000e+00 0.00000000e+00 0.00000000e+00 0.00000000e+00 
        </DataArray>
        <DataArray type="Float64" Name="p">
          -1.31473628e+04 -3.23731222e+03 6.67273835e+03 1.65827889e+04 -2.01274509e+04 -1.35207506e+04 -6.91405018e+03 -3.07349801e+02 -2.71075391e+04 -2.38041889e+04 -2.05008387e+04 -1.71974885e+04 -3.40876272e+04 -3.40876272e+04 -3.40876272e+04 -3.40876272e+04 
        </DataArray>
      </PointData>
    </Piece>
    <Piece NumberOfPoints="16" NumberOfCells="9">
      <Points>
        <DataArray type="Float64" NumberOfComponents="3" format="ascii">
          2.00000000e+00 1.50000000e+00 0.00000000e+00 
2.00000000e+00 1.75000000e+00 0.00000000e+00 
2.00000000e+00 2.00000000e+00 0.00000000e+00 
2.00000000e+00 2.25000000e+00 0.00000000e+00 
1.83333337e+00 1.75000000e+00 0.00000000e+00 
1.83333337e+00 1.91666663e+00 0.00000000e+00 
1.83333337e+00 2.08333325e+00 0.00000000e+00 
1.83333337e+00 2.25000000e+00 0.00000000e+00 
1.66666663e+00 2.00000000e+00 0.00000000e+00 
1.66666663e+00 2.08333325e+00 0.00000000e+00 
1.66666663e+00 2.16666675e+00 0.00000000e+00 
1.66666663e+00 2.25000000e+00 0.00000000e+00 
1.50000000e+00 2.25000000e+00 0.00000000e+00 
1.50000000e+00 2.25000000e+00 0.00000000e+00 
1.50000000e+00 2.25000000e+00 0.00000000e+00 
1.50000000e+00 2.25000000e+00 0.00000000e+00 

        </DataArray>
      </Points>
      <Cells>
        <DataArray type="Int32" Name="connectivity" format="ascii">
0 1 5 4
4 5 9 8
8 9 13 12
1 2 6 5
5 6 10 9
9 10 14 13
2 3 7 6
6 7 11 10
10 11 15 14

        </DataArray>
        <DataArray type="Int32" Name="offsets" format="ascii">
4 8 12 16 20 24 28 32 36 
        </DataArray>
        <DataArray type="UInt8" Name="types" format="ascii">
9 9 9 9 9 9 9 9 9 
        </DataArray>
      </Cells>
      <PointData>
        <DataArray type="Float64" Name="u">
          4.38009858e+02 4.16451876e+02 2.36860674e+02 0.00000000e+00 3.91325690e+02 3.24256589e+02 1.83862718e+02 0.00000000e+00 3.25455515e+02 2.34829485e+02 1.25100317e+02 0.00000000e+00 0.00000000e+00 0.00000000e+00 0.00000000e+00 0.00000000e+00 
        </DataArray>
        <DataArray type="Float64" Name="v">
          -2.72846935e-02 -1.12265466e+00 -2.82206029e+00 0.00000000e+00 -1.49156496e+01 -3.51413998e+01 -3.06757390e+01 0.00000000e+00 -8.02782373e+01 -6.59949233e+01 -3.92987886e+01 0.00000000e+00 0.00000000e+00 0.00000000e+00 0.00000000e+00 0.00000000e+00 
        </DataArray>
        <DataArray type="Float64" Name="p">
          -7.07143559e+03 -1.68834554e+04 -2.66954752e+04 -3.65074950e+04 -1.79124105e+04 -2.44537570e+04 -3.09951036e+04 -3.75364501e+04 -2.87533854e+04 -3.20240587e+04 -3.52947319e+04 -3.85654052e+04 -3.95943603e+04 -3.95943603e+04 -3.95943603e+04 -3.95943603e+04 
        </DataArray>
      </PointData>
    </Piece>
    <Piece NumberOfPoints="16" NumberOfCells="9">
      <Points>
        <DataArray type="Float64" NumberOfComponents="3" format="ascii">
          1.50000000e+00 2.25000000e+00 0.00000000e+00 
1.50000000e+00 2.00000000e+00 0.00000000e+00 
1.50000000e+00 1.75000000e+00 0.00000000e+00 
1.50000000e+00 1.50000000e+00 0.00000000e+00 
1.66666663e+00 2.00000000e+00 0.00000000e+00 
1.66666663e+00 1.83333337e+00 0.00000000e+00 
1.66666663e+00 1.66666663e+00 0.00000000e+00 
1.66666663e+00 1.50000000e+00 0.00000000e+00 
1.83333337e+00 1.75000000e+00 0.00000000e+00 
1.83333337e+00 1.66666663e+00 0.00000000e+00 
1.83333337e+00 1.58333337e+00 0.00000000e+00 
1.83333337e+00 1.50000000e+00 0.00000000e+00 
2.00000000e+00 1.50000000e+00 0.00000000e+00 
2.00000000e+00 1.50000000e+00 0.00000000e+00 
2.00000000e+00 1.50000000e+00 0.00000000e+00 
2.00000000e+00 1.50000000e+00 0.00000000e+00 

        </DataArray>
      </Points>
      <Cells>
        <DataArray type="Int32" Name="connectivity" format="ascii">
0 1 5 4
4 5 9 8
8 9 13 12
1 2 6 5
5 6 10 9
9 10 14 13
2 3 7 6
6 7 11 10
10 11 15 14

        </DataArray>
        <DataArray type="Int32" Name="offsets" format="ascii">
4 8 12 16 20 24 28 32 36 
        </DataArray>
        <DataArray type="UInt8" Name="types" format="ascii">
9 9 9 9 9 9 9 9 9 
        </DataArray>
      </Cells>
      <PointData>
        <DataArray type="Float64" Name="u">
          0.00000000e+00 3.20713170e+02 3.67217742e+02 3.34607809e+02 3.25455515e+02 3.90470095e+02 3.82701004e+02 3.59953900e+02 3.91325690e+02 3.97528566e+02 3.97807228e+02 3.99387384e+02 4.38009858e+02 4.38009858e+02 4.38009858e+02 4.38009858e+02 
        </DataArray>
        <DataArray type="Float64" Name="v">
          0.00000000e+00 -1.36255131e+02 -6.10455335e+01 6.64692216e-02 -8.02782373e+01 -5.57740233e+01 -6.87732360e+00 -4.21419680e-01 -1.49156496e+01 4.20140580e+00 1.20186230e+01 1.81841765e-01 -2.72846935e-02 -2.72846935e-02 -2.72846935e-02 -2.72846935e-02 
        </DataArray>
        <DataArray type="Float64" Name="p">
          -3.36098165e+04 -1.69265040e+04 -2.43191602e+02 1.64401208e+04 -2.70428308e+04 -1.59206225e+04 -4.79841422e+03 6.32379407e+03 -2.04758451e+04 -1.49147410e+04 -9.35363684e+03 -3.79253270e+03 -1.39088595e+04 -1.39088595e+04 -1.39088595e+04 -1.39088595e+04 
        </DataArray>
      </PointData>
    </Piece>
    <Piece NumberOfPoints="16" NumberOfCells="9">
      <Points>
        <DataArray type="Float64" NumberOfComponents="3" format="ascii">
          3.00000000e+00 0.00000000e+00 0.00000000e+00 
3.00000000e+00 2.50000000e-01 0.00000000e+00 
3.00000000e+00 5.00000000e-01 0.00000000e+00 
3.00000000e+00 7.50000000e-01 0.00000000e+00 
2.66666675e+00 0.00000000e+00 0.00000000e+00 
2.66666675e+00 1.66666672e-01 0.00000000e+00 
2.66666675e+00 3.33333343e-01 0.00000000e+00 
2.66666675e+00 5.00000000e-01 0.00000000e+00 
2.33333325e+00 0.00000000e+00 0.00000000e+00 
2.33333325e+00 8.33333358e-02 0.00000000e+00 
2.33333325e+00 1.66666672e-01 0.00000000e+00 
2.33333325e+00 2.50000000e-01 0.00000000e+00 
2.00000000e+00 0.00000000e+00 0.00000000e+00 
2.00000000e+00 0.00000000e+00 0.00000000e+00 
2.00000000e+00 0.00000000e+00 0.00000000e+00 
2.00000000e+00 0.00000000e+00 0.00000000e+00 

        </DataArray>
      </Points>
      <Cells>
        <DataArray type="Int32" Name="connectivity" format="ascii">
0 1 5 4
4 5 9 8
8 9 13 12
1 2 6 5
5 6 10 9
9 10 14 13
2 3 7 6
6 7 11 10
10 11 15 14

        </DataArray>
        <DataArray type="Int32" Name="offsets" format="ascii">
4 8 12 16 20 24 28 32 36 
        </DataArray>
        <DataArray type="UInt8" Name="types" format="ascii">
9 9 9 9 9 9 9 9 9 
        </DataArray>
      </Cells>
      <PointData>
        <DataArray type="Float64" Name="u">
          0.00000000e+00 -3.05600961e+01 4.56777768e+00 1.06236145e+02 0.00000000e+00 -2.21565586e+01 -2.16634593e+01 1.73189750e+00 0.00000000e+00 -9.92987020e+00 -1.58335748e+01 -1.76795388e+01 0.00000000e+00 0.00000000e+00 0.00000000e+00 0.00000000e+00 
        </DataArray>
        <DataArray type="Float64" Name="v">