<?xml version="1.0"?>
<VTKFile type="UnstructuredGrid" version="0.1" byte_order="LittleEndian">
  <UnstructuredGrid>
    <Piece NumberOfPoints="16" NumberOfCells="9">
      <Points>
        <DataArray type="Float64" NumberOfComponents="3" format="ascii">
          0.00000000e+00 0.00000000e+00 0.00000000e+00 
1.66666672e-01 0.00000000e+00 0.00000000e+00 
3.33333343e-01 0.00000000e+00 0.00000000e+00 
5.00000000e-01 0.00000000e+00 0.00000000e+00 
1.66666672e-01 3.33333343e-01 0.00000000e+00 
2.77777791e-01 3.33333343e-01 0.00000000e+00 
3.88888896e-01 3.33333343e-01 0.00000000e+00 
5.00000000e-01 3.33333343e-01 0.00000000e+00 
3.33333343e-01 6.66666687e-01 0.00000000e+00 
3.88888896e-01 6.66666687e-01 0.00000000e+00 
4.44444448e-01 6.66666687e-01 0.00000000e+00 
5.00000000e-01 6.66666687e-01 0.00000000e+00 
5.00000000e-01 1.00000000e+00 0.00000000e+00 
5.00000000e-01 1.00000000e+00 0.00000000e+00 
5.00000000e-01 1.00000000e+00 0.00000000e+00 
5.00000000e-01 1.00000000e+00 0.00000000e+00 

        </DataArray>
      </Points>
      <Cells>
        <DataArray type="Int32" Name="connectivity" format="ascii">
0 1 5 4
4 5 9 8
8 9 13 12
1 2 6 5
5 6 10 9
9 10 14 13
2 3 7 6
6 7 11 10
10 11 15 14

        </DataArray>
        <DataArray type="Int32" Name="offsets" format="ascii">
4 8 12 16 20 24 28 32 36 
        </DataArray>
        <DataArray type="UInt8" Name="types" format="ascii">
9 9 9 9 9 9 9 9 9 
        </DataArray>
      </Cells>
      <PointData>
        <DataArray type="Float64" Name="u">
          0.00000000e+00 0.00000000e+00 0.00000000e+00 0.00000000e+00 9.02776159e+01 8.75825634e+01 8.19210524e+01 7.32930830e+01 1.54303461e+02 1.57668722e+02 1.59550753e+02 1.59949554e+02 2.00994302e+02 2.00994302e+02 2.00994302e+02 2.00994302e+02 
        </DataArray>
        <DataArray type="Float64" Name="v">
          0.00000000e+00 0.00000000e+00 0.00000000e+00 0.00000000e+00 7.27850096e+00 6.39700247e+00 1.75608645e+01 4.07700871e+01 8.66656249e+00 1.17886215e+01 2.09333608e+01 3.61007803e+01 2.01954493e+01 2.01954493e+01 2.01954493e+01 2.01954493e+01 
        </DataArray>
        <DataArray type="Float64" Name="p">
          5.34834464e+04 5.28245958e+04 5.21657451e+04 5.15068944e+04 5.18401078e+04 5.14008740e+04 5.09616402e+04 5.05224064e+04 5.01967691e+04 4.99771522e+04 4.97575353e+04 4.95379184e+04 4.85534305e+04 4.85534305e+04 4.85534305e+04 4.85534305e+04 
        </DataArray>
      </PointData>
    </Piece>
    <Piece NumberOfPoints="16" NumberOfCells="9">
      <Points>
        <DataArray type="Float64" NumberOfComponents="3" format="ascii">
          0.00000000e+00 1.00000000e+00 0.00000000e+00 
0.00000000e+00 6.66666687e-01 0.00000000e+00 
0.00000000e+00 3.33333343e-01 0.00000000e+00 
0.00000000e+00 0.00000000e+00 0.00000000e+00 
1.66666672e-01 1.00000000e+00 0.00000000e+00 
1.66666672e-01 7.77777791e-01 0.00000000e+00 
1.66666672e-01 5.55555582e-01 0.00000000e+00 
1.66666672e-01 3.33333343e-01 0.00000000e+00 
3.33333343e-01 1.00000000e+00 0.00000000e+00 
3.33333343e-01 8.88888896e-01 0.00000000e+00 
3.33333343e-01 7.77777791e-01 0.00000000e+00 
3.33333343e-01 6.66666687e-01 0.00000000e+00 
5.00000000e-01 1.00000000e+00 0.00000000e+00 
5.00000000e-01 1.00000000e+00 0.00000000e+00 
5.00000000e-01 1.00000000e+00 0.00000000e+00 
5.00000000e-01 1.00000000e+00 0.00000000e+00 

        </DataArray>
      </Points>
      <Cells>
        <DataArray type="Int32" Name="connectivity" format="ascii">
0 1 5 4
4 5 9 8
8 9 13 12
1 2 6 5
5 6 10 9
9 10 14 13
2 3 7 6
6 7 11 10
10 11 15 14

        </DataArray>
        <DataArray type="Int32" Name="offsets" format="ascii">
4 8 12 16 20 24 28 32 36 
        </DataArray>
        <DataArray type="UInt8" Name="types" format="ascii">
9 9 9 9 9 9 9 9 9 
        </DataArray>
      </Cells>
      <PointData>
        <DataArray type="Float64" Name="u">
          2.00000000e+02 1.55555556e+02 8.88888889e+01 0.00000000e+00 2.01387417e+02 1.72455723e+02 1.35419122e+02 9.02776159e+01 2.01889888e+02 1.87611063e+02 1.71748921e+02 1.54303461e+02 2.00994302e+02 2.00994302e+02 2.00994302e+02 2.00994302e+02 
        </DataArray>
        <DataArray type="Float64" Name="v">
          0.00000000e+00 0.00000000e+00 0.00000000e+00 0.00000000e+00 4.49945558e+00 4.11886931e+00 5.04521777e+00 7.27850096e+00 1.05094739e+01 9.24170271e+00 8.62739892e+00 8.66656249e+00 2.01954493e+01 2.01954493e+01 2.01954493e+01 2.01954493e+01 
        </DataArray>
        <DataArray type="Float64" Name="p">
          4.94471770e+04 5.08568996e+04 5.22666221e+04 5.36763447e+04 4.91477563e+04 5.00875714e+04 5.10273864e+04 5.19672015e+04 4.88483356e+04 4.93182431e+04 4.97881507e+04 5.02580582e+04 4.85489149e+04 4.85489149e+04 4.85489149e+04 4.85489149e+04 
        </DataArray>
      </PointData>
    </Piece>
    <Piece NumberOfPoints="16" NumberOfCells="9">
      <Points>
        <DataArray type="Float64" NumberOfComponents="3" format="ascii">
          5.00000000e-01 1.50000000e+00 0.00000000e+00 
3.33333343e-01 1.50000000e+00 0.00000000e+00 
1.66666672e-01 1.50000000e+00 0.00000000e+00 
0.00000000e+00 1.50000000e+00 0.00000000e+00 
5.00000000e-01 1.33333337e+00 0.00000000e+00 
3.88888896e-01 1.33333337e+00 0.00000000e+00 
2.77777791e-01 1.33333337e+00 0.00000000e+00 
1.66666672e-01 1.33333337e+00 0.00000000e+00 
5.00000000e-01 1.16666663e+00 0.00000000e+00 
4.44444448e-01 1.16666663e+00 0.00000000e+00 
3.88888896e-01 1.16666663e+00 0.00000000e+00 
3.33333343e-01 1.16666663e+00 0.00000000e+00 
5.00000000e-01 1.00000000e+00 0.00000000e+00 
5.00000000e-01 1.00000000e+00 0.00000000e+00 
5.00000000e-01 1.00000000e+00 0.00000000e+00 
5.00000000e-01 1.00000000e+00 0.00000000e+00 

        </DataArray>
      </Points>
      <Cells>
        <DataArray type="Int32" Name="connectivity" format="ascii">
0 1 5 4
4 5 9 8
8 9 13 12
1 2 6 5
5 6 10 9
9 10 14 13
2 3 7 6
6 7 11 10
10 11 15 14

        </DataArray>
        <DataArray type="Int32" Name="offsets" format="ascii">
4 8 12 16 20 24 28 32 36 
        </DataArray>
        <DataArray type="UInt8" Name="types" format="ascii">
9 9 9 9 9 9 9 9 9 
        </DataArray>
      </Cells>
      <PointData>
        <DataArray type="Float64" Name="u">
          1.78925963e+02 2.30079759e+02 2.28329346e+02 2.25000000e+02 2.42832675e+02 2.31866667e+02 2.19436610e+02 2.20749994e+02 2.30170177e+02 2.21490978e+02 2.17958001e+02 2.21472180e+02 2.00994302e+02 2.00994302e+02 2.00994302e+02 2.00994302e+02 
        </DataArray>
        <DataArray type="Float64" Name="v">
          -3.36460071e-01 -1.51903439e-02 2.92752358e-03 0.00000000e+00 4.46773467e+01 -2.93612120e+00 -1.68979653e+01 2.87540155e+00 3.90640610e+01 1.10767392e+01 -5.10870837e-02 5.69103043e+00 2.01954493e+01 2.01954493e+01 2.01954493e+01 2.01954493e+01 
        </DataArray>
        <DataArray type="Float64" Name="p">
          4.63600829e+04 4.79913796e+04 4.96226763e+04 5.12539730e+04 4.58993494e+04 4.69868806e+04 4.80744117e+04 4.91619428e+04 4.54386160e+04 4.59823816e+04 4.65261471e+04 4.70699127e+04 4.49778825e+04 4.49778825e+04 4.49778825e+04 4.49778825e+04 
        </DataArray>
      </PointData>
    </Piece>
    <Piece NumberOfPoints="16" NumberOfCells="9">
      <Points>
        <DataArray type="Float64" NumberOfComponents="3" format="ascii">
          0.00000000e+00 1.00000000e+00 0.00000000e+00 
1.66666672e-01 1.00000000e+00 0.00000000e+00 
3.33333343e-01 1.00000000e+00 0.00000000e+00 
5.00000000e-01 1.00000000e+00 0.00000000e+00 
0.00000000e+00 1.16666663e+00 0.00000000e+00 
1.11111112e-01 1.16666663e+00 0.00000000e+00 
2.22222224e-01 1.16666663e+00 0.00000000e+00 
3.33333343e-01 1.16666663e+00 0.00000000e+00 
0.00000000e+00 1.33333337e+00 0.00000000e+00 
5.55555560e-02 1.33333337e+00 0.00000000e+00 
1.11111112e-01 1.33333337e+00 0.00000000e+00 
1.66666672e-01 1.33333337e+00 0.00000000e+00 
0.00000000e+00 1.50000000e+00 0.00000000e+00 
0.00000000e+00 1.50000000e+00 0.00000000e+00 
0.00000000e+00 1.50000000e+00 0.00000000e+00 
0.00000000e+00 1.50000000e+00 0.00000000e+00 

        </DataArray>
      </Points>
      <Cells>
        <DataArray type="Int32" Name="connectivity" format="ascii">
0 1 5 4
4 5 9 8
8 9 13 12
1 2 6 5
5 6 10 9
9 10 14 13
2 3 7 6
6 7 11 10
10 11 15 14

        </DataArray>
        <DataArray type="Int32" Name="offsets" format="ascii">
4 8 12 16 20 24 28 32 36 
        </DataArray>
        <DataArray type="UInt8" Name="types" format="ascii">
9 9 9 9 9 9 9 9 9 
        </DataArray>
      </Cells>
      <PointData>
        <DataArray type="Float64" Name="u">
          2.00000000e+02 2.01387417e+02 2.01889888e+02 2.00994302e+02 2.13888889e+02 2.14349609e+02 2.16928051e+02 2.21472180e+02 2.22222222e+02 2.20580626e+02 2.20096218e+02 2.20749994e+02 2.25000000e+02 2.25000000e+02 2.25000000e+02 2.25000000e+02 
        </DataArray>
        <DataArray type="Float64" Name="v">
          0.00000000e+00 4.49945558e+00 1.05094739e+01 2.01954493e+01 0.00000000e+00 1.64357150e+00 3.32671553e+00 5.69103043e+00 0.00000000e+00 1.07978796e+00 2.01152187e+00 2.87540155e+00 0.00000000e+00 0.00000000e+00 0.00000000e+00 0.00000000e+00 
        </DataArray>
        <DataArray type="Float64" Name="p">
          4.96127013e+04 4.88336070e+04 4.80545126e+04 4.72754182e+04 4.90761775e+04 4.85567813e+04 4.80373850e+04 4.75179888e+04 4.85396537e+04 4.82799556e+04 4.80202574e+04 4.77605593e+04 4.80031299e+04 4.80031299e+04 4.80031299e+04 4.80031299e+04 
        </DataArray>
      </PointData>
    </Piece>
    <Piece NumberOfPoints="16" NumberOfCells="9">
      <Points>
        <DataArray type="Float64" NumberOfComponents="3" format="ascii">
          0.00000000e+00 1.50000000e+00 0.00000000e+00 
1.66666672e-01 1.50000000e+00 0.00000000e+00 
3.33333343e-01 1.50000000e+00 0.00000000e+00 
5.00000000e-01 1.50000000e+00 0.00000000e+00 
1.66666672e-01 1.66666663e+00 0.00000000e+00 
2.77777791e-01 1.66666663e+00 0.00000000e+00 
3.88888896e-01 1.66666663e+00 0.00000000e+00 
5.00000000e-01 1.66666663e+00 0.00000000e+00 
3.33333343e-01 1.83333337e+00 0.00000000e+00 
3.88888896e-01 1.83333337e+00 0.00000000e+00 
4.44444448e-01 1.83333337e+00 0.00000000e+00 
5.00000000e-01 1.83333337e+00 0.00000000e+00 
5.00000000e-01 2.00000000e+00 0.00000000e+00 
5.00000000e-01 2.00000000e+00 0.00000000e+00 
5.00000000e-01 2.00000000e+00 0.00000000e+00 
5.00000000e-01 2.00000000e+00 0.00000000e+00 

        </DataArray>
      </Points>
      <Cells>
        <DataArray type="Int32" Name="connectivity" format="ascii">
0 1 5 4
4 5 9 8
8 9 13 12
1 2 6 5
5 6 10 9
9 10 14 13
2 3 7 6
6 7 11 10
10 11 15 14

        </DataArray>
        <DataArray type="Int32" Name="offsets" format="ascii">
4 8 12 16 20 24 28 32 36 
        </DataArray>
        <DataArray type="UInt8" Name="types" format="ascii">
9 9 9 9 9 9 9 9 9 
        </DataArray>
      </Cells>
      <PointData>
        <DataArray type="Float64" Name="u">
          2.25000000e+02 2.28329346e+02 2.30079759e+02 1.78925963e+02 2.20769844e+02 2.19489413e+02 2.31896595e+02 2.42783900e+02 2.21446451e+02 2.17950098e+02 2.21472988e+02 2.30114186e+02 2.00954813e+02 2.00954813e+02 2.00954813e+02 2.00954813e+02 
        </DataArray>
        <DataArray type="Float64" Name="v">
          0.00000000e+00 2.92752358e-03 -1.51903439e-02 -3.36460071e-01 -2.89419961e+00 1.67423996e+01 2.81442114e+00 -4.47617221e+01 -5.78077069e+00 -1.00074432e-01 -1.11993286e+01 -3.90889817e+01 -2.03196726e+01 -2.03196726e+01 -2.03196726e+01 -2.03196726e+01 
        </DataArray>
        <DataArray type="Float64" Name="p">
          5.12571598e+04 4.96201766e+04 4.79831934e+04 4.63462102e+04 4.91781032e+04 4.80867810e+04 4.69954589e+04 4.59041368e+04 4.70990466e+04 4.65533855e+04 4.60077245e+04 4.54620634e+04 4.50199900e+04 4.50199900e+04 4.50199900e+04 4.50199900e+04 
        </DataArray>
      </PointData>
    </Piece>
    <Piece NumberOfPoints="16" NumberOfCells="9">
      <Points>
        <DataArray type="Float64" NumberOfComponents="3" format="ascii">
          0.00000000e+00 2.00000000e+00 0.00000000e+00 
0.00000000e+00 1.83333337e+00 0.00000000e+00 
0.00000000e+00 1.66666663e+00 0.00000000e+00 
0.00000000e+00 1.50000000e+00 0.00000000e+00 
1.66666672e-01 2.00000000e+00 0.00000000e+00 
1.66666672e-01 1.88888884e+00 0.00000000e+00 
1.66666672e-01 1.77777779e+00 0.00000000e+00 
1.66666672e-01 1.66666663e+00 0.00000000e+00 
3.33333343e-01 2.00000000e+00 0.00000000e+00 
3.33333343e-01 1.94444442e+00 0.00000000e+00 
3.33333343e-01 1.88888884e+00 0.00000000e+00 
3.33333343e-01 1.83333337e+00 0.00000000e+00 
5.00000000e-01 2.00000000e+00 0.00000000e+00 
5.00000000e-01 2.00000000e+00 0.00000000e+00 
5.00000000e-01 2.00000000e+00 0.00000000e+00 
5.00000000e-01 2.00000000e+00 0.00000000e+00 

        </DataArray>
      </Points>
      <Cells>
        <DataArray type="Int32" Name="connectivity" format="ascii">
0 1 5 4
4 5 9 8
8 9 13 12
1 2 6 5
5 6 10 9
9 10 14 13
2 3 7 6
6 7 11 10
10 11 15 14

        </DataArray>
        <DataArray type="Int32" Name="offsets" format="ascii">
4 8 12 16 20 24 28 32 36 
        </DataArray>
        <DataArray type="UInt8" Name="types" format="ascii">
9 9 9 9 9 9 9 9 9 
        </DataArray>
      </Cells>
      <PointData>
        <DataArray type="Float64" Name="u">
          2.00000000e+02 2.13888889e+02 2.22222222e+02 2.25000000e+02 2.01388090e+02 2.11668247e+02 2.18128832e+02 2.20769844e+02 2.01884263e+02 2.09697494e+02 2.16218224e+02 2.21446451e+02 2.00954813e+02 2.00954813e+02 2.00954813e+02 2.00954813e+02 
        </DataArray>
        <DataArray type="Float64" Name="v">
          0.00000000e+00 0.00000000e+00 0.00000000e+00 0.00000000e+00 -4.52720452e+00 -2.88627547e+00 -2.34194050e+00 -2.89419961e+00 -1.05712205e+01 -8.42610683e+00 -6.82929024e+00 -5.78077069e+00 -2.03196726e+01 -2.03196726e+01 -2.03196726e+01 -2.03196726e+01 
        </DataArray>
        <DataArray type="Float64" Name="p">
          4.96481091e+04 4.91037825e+04 4.85594559e+04 4.80151293e+04 4.88686482e+04 4.85057638e+04 4.81428794e+04 4.77799950e+04 4.80891873e+04 4.79077451e+04 4.77263029e+04 4.75448607e+04 4.73097265e+04 4.73097265e+04 4.73097265e+04 4.73097265e+04 
        </DataArray>
      </PointData>
    </Piece>
    <Piece NumberOfPoints="16" NumberOfCells="9">
      <Points>
        <DataArray type="Float64" NumberOfComponents="3" format="ascii">
          5.00000000e-01 3.00000000e+00 0.00000000e+00 
3.33333343e-01 3.00000000e+00 0.00000000e+00 
1.66666672e-01 3.00000000e+00 0.00000000e+00 
0.00000000e+00 3.00000000e+00 0.00000000e+00 
5.00000000e-01 2.66666675e+00 0.00000000e+00 
3.88888896e-01 2.66666675e+00 0.00000000e+00 
2.77777791e-01 2.66666675e+00 0.00000000e+00 
1.66666672e-01 2.66666675e+00 0.00000000e+00 
5.00000000e-01 2.33333325e+00 0.00000000e+00 
4.44444448e-01 2.33333325e+00 0.00000000e+00 
3.88888896e-01 2.33333325e+00 0.00000000e+00 
3.33333343e-01 2.33333325e+00 0.00000000e+00 
5.00000000e-01 2.00000000e+00 0.00000000e+00 
5.00000000e-01 2.00000000e+00 0.00000000e+00 
5.00000000e-01 2.00000000e+00 0.00000000e+00 
5.00000000e-01 2.00000000e+00 0.00000000e+00 

        </DataArray>
      </Points>
      <Cells>
        <DataArray type="Int32" Name="connectivity" format="ascii">
0 1 5 4
4 5 9 8
8 9 13 12
1 2 6 5
5 6 10 9
9 10 14 13
2 3 7 6
6 7 11 10
10 11 15 14

        </DataArray>
        <DataArray type="Int32" Name="offsets" format="ascii">
4 8 12 16 20 24 28 32 36 
        </DataArray>
        <DataArray type="UInt8" Name="types" format="ascii">
9 9 9 9 9 9 9 9 9 
        </DataArray>
      </Cells>
      <PointData>
        <DataArray type="Float64" Name="u">
          0.00000000e+00 0.00000000e+00 0.00000000e+00 0.00000000e+00 7.32855267e+01 8.19149727e+01 8.75792991e+01 9.02785058e+01 1.59904822e+02 1.59513487e+02 1.57639593e+02 1.54283138e+02 2.00954813e+02 2.00954813e+02 2.00954813e+02 2.00954813e+02 
        </DataArray>
        <DataArray type="Float64" Name="v">
          0.00000000e+00 0.00000000e+00 0.00000000e+00 0.00000000e+00 -4.07303585e+01 -1.75633028e+01 -6.41438624e+00 -7.28360873e+00 -3.60794266e+01 -2.09391340e+01 -1.18079108e+01 -8.68575722e+00 -2.03196726e+01 -2.03196726e+01 -2.03196726e+01 -2.03196726e+01 
        </DataArray>
        <DataArray type="Float64" Name="p">
          5.15530798e+04 5.22112659e+04 5.28694520e+04 5.35276381e+04 5.05675094e+04 5.10063001e+04 5.14450908e+04 5.18838815e+04 4.95819389e+04 4.98013343e+04 5.00207296e+04 5.02401250e+04 4.85963684e+04 4.85963684e+04 4.85963684e+04 4.85963684e+04 
        </DataArray>
      </PointData>
    </Piece>
    <Piece NumberOfPoints="16" NumberOfCells="9">
      <Points>
        <DataArray type="Float64" NumberOfComponents="3" format="ascii">
          0.00000000e+00 3.00000000e+00 0.00000000e+00 
0.00000000e+00 2.66666675e+00 0.00000000e+00 
0.00000000e+00 2.33333325e+00 0.00000000e+00 
0.00000000e+00 2.00000000e+00 0.00000000e+00 
1.66666672e-01 2.66666675e+00 0.00000000e+00 
1.66666672e-01 2.44444442e+00 0.00000000e+00 
1.66666672e-01 2.22222233e+00 0.00000000e+00 
1.66666672e-01 2.00000000e+00 0.00000000e+00 
3.33333343e-01 2.33333325e+00 0.00000000e+00 
3.33333343e-01 2.22222233e+00 0.00000000e+00 
3.33333343e-01 2.11111116e+00 0.00000000e+00 
3.33333343e-01 2.00000000e+00 0.00000000e+00 
5.00000000e-01 2.00000000e+00 0.00000000e+00 
5.00000000e-01 2.00000000e+00 0.00000000e+00 
5.00000000e-01 2.00000000e+00 0.00000000e+00 
5.00000000e-01 2.00000000e+00 0.00000000e+00 

        </DataArray>
      </Points>
      <Cells>
        <DataArray type="Int32" Name="connectivity" format="ascii">
0 1 5 4
4 5 9 8
8 9 13 12
1 2 6 5
5 6 10 9
9 10 14 13
2 3 7 6
6 7 11 10
10 11 15 14

        </DataArray>
        <DataArray type="Int32" Name="offsets" format="ascii">
4 8 12 16 20 24 28 32 36 
        </DataArray>
        <DataArray type="UInt8" Name="types" format="ascii">
9 9 9 9 9 9 9 9 9 
        </DataArray>
      </Cells>
      <PointData>
        <DataArray type="Float64" Name="u">
          0.00000000e+00 8.88888889e+01 1.55555556e+02 2.00000000e+02 9.02785058e+01 1.35413304e+02 1.72449832e+02 2.01388090e+02 1.54283138e+02 1.71730179e+02 1.87597220e+02 2.01884263e+02 2.00954813e+02 2.00954813e+02 2.00954813e+02 2.00954813e+02 
        </DataArray>
        <DataArray type="Float64" Name="v">
          0.00000000e+00 0.00000000e+00 0.00000000e+00 0.00000000e+00 -7.28360873e+00 -5.05328576e+00 -4.13448436e+00 -4.52720452e+00 -8.68575722e+00 -8.65848418e+00 -9.28697193e+00 -1.05712205e+01 -2.03196726e+01 -2.03196726e+01 -2.03196726e+01 -2.03196726e+01 
        </DataArray>
        <DataArray type="Float64" Name="p">
          5.37247291e+04 5.23108501e+04 5.08969711e+04 4.94830921e+04 5.20121563e+04 5.10695704e+04 5.01269844e+04 4.91843984e+04 5.02995836e+04 4.98282906e+04 4.93569976e+04 4.88857046e+04 4.85870109e+04 4.85870109e+04 4.85870109e+04 4.85870109e+04 
        </DataArray>
      </PointData>
    </Piece>
    <Piece NumberOfPoints="16" NumberOfCells="9">
      <Points>
        <DataArray type="Float64" NumberOfComponents="3" format="ascii">
          2.00000000e+00 7.50000000e-01 0.00000000e+00 
2.00000000e+00 1.00000000e+00 0.00000000e+00 
2.00000000e+00 1.25000000e+00 0.00000000e+00 
2.00000000e+00 1.50000000e+00 0.00000000e+00 
1.83333337e+00 7.50000000e-01 0.00000000e+00 
1.83333337e+00 9.16666687e-01 0.00000000e+00 
1.83333337e+00 1.08333337e+00 0.00000000e+00 
1.83333337e+00 1.25000000e+00 0.00000000e+00 
1.66666663e+00 7.50000000e-01 0.00000000e+00 
1.66666663e+00 8.33333313e-01 0.00000000e+00 
1.66666663e+00 9.16666687e-01 0.00000000e+00 
1.66666663e+00 1.00000000e+00 0.00000000e+00 
1.50000000e+00 7.50000000e-01 0.00000000e+00 
1.50000000e+00 7.50000000e-01 0.00000000e+00 
1.50000000e+00 7.50000000e-01 0.00000000e+00 
1.50000000e+00 7.50000000e-01 0.00000000e+00 

        </DataArray>
      </Points>
      <Cells>
        <DataArray type="Int32" Name="connectivity" format="ascii">
0 1 5 4
4 5 9 8
8 9 13 12
1 2 6 5
5 6 10 9
9 10 14 13
2 3 7 6
6 7 11 10
10 11 15 14

        </DataArray>
        <DataArray type="Int32" Name="offsets" format="ascii">
4 8 12 16 20 24 28 32 36 
        </DataArray>
        <DataArray type="UInt8" Name="types" format="ascii">
9 9 9 9 9 9 9 9 9 
        </DataArray>
      </Cells>
      <PointData>
        <DataArray type="Float64" Name="u">
          0.00000000e+00 2.40254048e+02 4.12884322e+02 4.42520905e+02 0.00000000e+00 1.85953341e+02 3.23815964e+02 3.91256041e+02 0.00000000e+00 1.24864181e+02 2.33196755e+02 3.22206244e+02 0.00000000e+00 0.00000000e+00 0.00000000e+00 0.00000000e+00 
        </DataArray>
        <DataArray type="Float64" Name="v">
          0.00000000e+00 7.97317110e-01 1.87582316e+00 -5.56102072e-02 0.00000000e+00 2.70797610e+01 3.26433707e+01 1.57156797e+01 0.00000000e+00 3.57595271e+01 6.07297354e+01 7.47887310e+01 0.00000000e+00 0.00000000e+00 0.00000000e+00 0.00000000e+00 
        </DataArray>
        <DataArray type="Float64" Name="p">
          -3.61472259e+04 -2.66431553e+04 -1.71390846e+04 -7.63501398e+03 -3.70590880e+04 -3.07230409e+04 -2.43869938e+04 -1.80509467e+04 -3.79709501e+04 -3.48029265e+04 -3.16349030e+04 -2.84668794e+04 -3.88828121e+04 -3.88828121e+04 -3.88828121e+04 -3.88828121e+04 
        </DataArray>
      </PointData>
    </Piece>
    <Piece NumberOfPoints="16" NumberOfCells="9">
      <Points>
        <DataArray type="Float64" NumberOfComponents="3" format="ascii">
          2.00000000e+00 1.50000000e+00 0.00000000e+00 
1.83333337e+00 1.50000000e+00 0.00000000e+00 
1.66666663e+00 1.50000000e+00 0.00000000e+00 
1.50000000e+00 1.50000000e+00 0.00000000e+00 
1.83333337e+00 1.25000000e+00 0.00000000e+00 
1.72222221e+00 1.25000000e+00 0.00000000e+00 
1.61111116e+00 1.25000000e+00 0.00000000e+00 
1.50000000e+00 1.25000000e+00 0.00000000e+00 
1.66666663e+00 1.00000000e+00 0.00000000e+00 
1.61111116e+00 1.00000000e+00 0.00000000e+00 
1.55555558e+00 1.00000000e+00 0.00000000e+00 
1.50000000e+00 1.00000000e+00 0.00000000e+00 
1.50000000e+00 7.50000000e-01 0.00000000e+00 
1.50000000e+00 7.50000000e-01 0.00000000e+00 
1.50000000e+00 7.50000000e-01 0.00000000e+00 
1.50000000e+00 7.50000000e-01 0.00000000e+00 

        </DataArray>
      </Points>
      <Cells>
        <DataArray type="Int32" Name="connectivity" format="ascii">
0 1 5 4
4 5 9 8
8 9 13 12
1 2 6 5
5 6 10 9
9 10 14 13
2 3 7 6
6 7 11 10
10 11 15 14

        </DataArray>
        <DataArray type="Int32" Name="offsets" format="ascii">
4 8 12 16 20 24 28 32 36 
        </DataArray>
        <DataArray type="UInt8" Name="types" format="ascii">
9 9 9 9 9 9 9 9 9 
        </DataArray>
      </Cells>
      <PointData>
        <DataArray type="Float64" Name="u">
          4.42520905e+02 4.02974649e+02 3.64787641e+02 3.36967895e+02 3.91256041e+02 3.95136537e+02 3.86615198e+02 3.68361067e+02 3.22206244e+02 3.27635583e+02 3.26712978e+02 3.19772058e+02 0.00000000e+00 0.00000000e+00 0.00000000e+00 0.00000000e+00 
        </DataArray>
        <DataArray type="Float64" Name="v">
          -5.56102072e-02 9.73189958e-02 -3.65965243e-01 8.43225577e-03 1.57156797e+01 2.36867614e+01 3.82812643e+01 5.99299722e+01 7.47887310e+01 8.99719999e+01 1.08535448e+02 1.30532922e+02 0.00000000e+00 0.00000000e+00 0.00000000e+00 0.00000000e+00 
        </DataArray>
        <DataArray type="Float64" Name="p">
          -1.43821604e+04 -4.32081700e+03 5.74052644e+03 1.58018699e+04 -2.05674395e+04 -1.38598773e+04 -7.15231496e+03 -4.44752669e+02 -2.67527186e+04 -2.33989375e+04 -2.00451564e+04 -1.66913752e+04 -3.29379978e+04 -3.29379978e+04 -3.29379978e+04 -3.29379978e+04 
        </DataArray>
      </PointData>
    </Piece>
    <Piece NumberOfPoints="16" NumberOfCells="9">
      <Points>
        <DataArray type="Float64" NumberOfComponents="3" format="ascii">
          2.00000000e+00 1.50000000e+00 0.00000000e+00 
2.00000000e+00 1.75000000e+00 0.00000000e+00 
2.00000000e+00 2.00000000e+00 0.00000000e+00 
2.00000000e+00 2.25000000e+00 0.00000000e+00 
1.83333337e+00 1.75000000e+00 0.00000000e+00 
1.83333337e+00 1.91666663e+00 0.00000000e+00 
1.83333337e+00 2.08333325e+00 0.00000000e+00 
1.83333337e+00 2.25000000e+00 0.00000000e+00 
1.66666663e+00 2.00000000e+00 0.00000000e+00 
1.66666663e+00 2.08333325e+00 0.00000000e+00 
1.66666663e+00 2.16666675e+00 0.00000000e+00 
1.66666663e+00 2.25000000e+00 0.00000000e+00 
1.50000000e+00 2.25000000e+00 0.00000000e+00 
1.50000000e+00 2.25000000e+00 0.00000000e+00 
1.50000000e+00 2.25000000e+00 0.00000000e+00 
1.50000000e+00 2.25000000e+00 0.00000000e+00 

        </DataArray>
      </Points>
      <Cells>
        <DataArray type="Int32" Name="connectivity" format="ascii">
0 1 5 4
4 5 9 8
8 9 13 12
1 2 6 5
5 6 10 9
9 10 14 13
2 3 7 6
6 7 11 10
10 11 15 14

        </DataArray>
        <DataArray type="Int32" Name="offsets" format="ascii">
4 8 12 16 20 24 28 32 36 
        </DataArray>
        <DataArray type="UInt8" Name="types" format="ascii">
9 9 9 9 9 9 9 9 9 
        </DataArray>
      </Cells>
      <PointData>
        <DataArray type="Float64" Name="u">
          4.42520905e+02 4.12667688e+02 2.39180005e+02 0.00000000e+00 3.91900322e+02 3.22685952e+02 1.84354522e+02 0.00000000e+00 3.19539136e+02 2.30662987e+02 1.23187693e+02 0.00000000e+00 0.00000000e+00 0.00000000e+00 0.00000000e+00 0.00000000e+00 
        </DataArray>
        <DataArray type="Float64" Name="v">
          -5.56102072e-02 -2.43848605e+00 -6.64485424e-01 0.00000000e+00 -1.60310325e+01 -3.20772275e+01 -2.62134126e+01 0.00000000e+00 -7.33380774e+01 -5.93201643e+01 -3.48091213e+01 0.00000000e+00 0.00000000e+00 0.00000000e+00 0.00000000e+00 0.00000000e+00 
        </DataArray>
        <DataArray type="Float64" Name="p">
          -8.02016026e+03 -1.73561969e+04 -2.66922336e+04 -3.60282703e+04 -1.82834697e+04 -2.45074941e+04 -3.07315186e+04 -3.69555430e+04 -2.85467791e+04 -3.16587913e+04 -3.47708036e+04 -3.78828158e+04 -3.88100885e+04 -3.88100885e+04 -3.88100885e+04 -3.88100885e+04 
        </DataArray>
      </PointData>
    </Piece>
    <Piece NumberOfPoints="16" NumberOfCells="9">
      <Points>
        <DataArray type="Float64" NumberOfComponents="3" format="ascii">
          1.50000000e+00 2.25000000e+00 0.00000000e+00 
1.50000000e+00 2.00000000e+00 0.00000000e+00 
1.50000000e+00 1.75000000e+00 0.00000000e+00 
1.50000000e+00 1.50000000e+00 0.00000000e+00 
1.66666663e+00 2.00000000e+00 0.00000000e+00 
1.66666663e+00 1.83333337e+00 0.00000000e+00 
1.66666663e+00 1.66666663e+00 0.00000000e+00 
1.66666663e+00 1.50000000e+00 0.00000000e+00 
1.83333337e+00 1.75000000e+00 0.00000000e+00 
1.83333337e+00 1.66666663e+00 0.00000000e+00 
1.83333337e+00 1.58333337e+00 0.00000000e+00 
1.83333337e+00 1.50000000e+00 0.00000000e+00 
2.00000000e+00 1.50000000e+00 0.00000000e+00 
2.00000000e+00 1.50000000e+00 0.00000000e+00 
2.00000000e+00 1.50000000e+00 0.00000000e+00 
2.00000000e+00 1.50000000e+00 0.00000000e+00 

        </DataArray>
      </Points>
      <Cells>
        <DataArray type="Int32" Name="connectivity" format="ascii">
0 1 5 4
4 5 9 8
8 9 13 12
1 2 6 5
5 6 10 9
9 10 14 13
2 3 7 6
6 7 11 10
10 11 15 14

        </DataArray>
        <DataArray type="Int32" Name="offsets" format="ascii">
4 8 12 16 20 24 28 32 36 
        </DataArray>
        <DataArray type="UInt8" Name="types" format="ascii">
9 9 9 9 9 9 9 9 9 
        </DataArray>
      </Cells>
      <PointData>
        <DataArray type="Float64" Name="u">
          0.00000000e+00 3.18480530e+02 3.68741082e+02 3.36967895e+02 3.19539136e+02 3.88781523e+02 3.85475593e+02 3.64787641e+02 3.91900322e+02 3.99765107e+02 4.01157954e+02 4.02974649e+02 4.42520905e+02 4.42520905e+02 4.42520905e+02 4.42520905e+02 
        </DataArray>
        <DataArray type="Float64" Name="v">
          0.00000000e+00 -1.29323850e+02 -6.08815719e+01 8.43225577e-03 -7.33380774e+01 -5.40073617e+01 -9.40496363e+00 -3.65965243e-01 -1.60310325e+01 1.21805278e+00 9.12896504e+00 9.73189958e-02 -5.56102072e-02 -5.56102072e-02 -5.56102072e-02 -5.56102072e-02 
        </DataArray>
        <DataArray type="Float64" Name="p">
          -3.25773472e+04 -1.64887643e+04 -4.00181497e+02 1.56884013e+04 -2.67129222e+04 -1.59872003e+04 -5.26147844e+03 5.46424345e+03 -2.08484973e+04 -1.54856363e+04 -1.01227754e+04 -4.75991443e+03 -1.49840723e+04 -1.49840723e+04 -1.49840723e+04 -1.49840723e+04 
        </DataArray>
      </PointData>
    </Piece>
    <Piece NumberOfPoints="16" NumberOfCells="9">
      <Points>
        <DataArray type="Float64" NumberOfComponents="3" format="ascii">
          3.00000000e+00 0.00000000e+00 0.00000000e+00 
3.00000000e+00 2.50000000e-01 0.00000000e+00 
3.00000000e+00 5.00000000e-01 0.00000000e+00 
3.00000000e+00 7.50000000e-01 0.00000000e+00 
2.66666675e+00 0.00000000e+00 0.00000000e+00 
2.66666675e+00 1.66666672e-01 0.00000000e+00 
2.66666675e+00 3.33333343e-01 0.00000000e+00 
2.66666675e+00 5.00000000e-01 0.00000000e+00 
2.33333325e+00 0.00000000e+00 0.00000000e+00 
2.33333325e+00 8.33333358e-02 0.00000000e+00 
2.33333325e+00 1.66666672e-01 0.00000000e+00 
2.33333325e+00 2.50000000e-01 0.00000000e+00 
2.00000000e+00 0.00000000e+00 0.00000000e+00 
2.00000000e+00 0.00000000e+00 0.00000000e+00 
2.00000000e+00 0.00000000e+00 0.00000000e+00 
2.00000000e+00 0.00000000e+00 0.00000000e+00 

        </DataArray>
      </Points>
      <Cells>
        <DataArray type="Int32" Name="connectivity" format="ascii">
0 1 5 4
4 5 9 8
8 9 13 12
1 2 6 5
5 6 10 9
9 10 14 13
2 3 7 6
6 7 11 10
10 11 15 14

        </DataArray>
        <DataArray type="Int32" Name="offsets" format="ascii">
4 8 12 16 20 24 28 32 36 
        </DataArray>
        <DataArray type="UInt8" Name="types" format="ascii">
9 9 9 9 9 9 9 9 9 
        </DataArray>
      </Cells>
      <PointData>
        <DataArray type="Float64" Name="u">
          0.00000000e+00 -2.67075111e+01 1.13690638e+01 1.13383893e+02 0.00000000e+00 -2.18595855e+01 -1.97176920e+01 6.17506369e+00 0.00000000e+00 -1.09410821e+01 -1.70796564e+01 -1.84470501e+01 0.00000000e+00 0.00000000e+00 0.00000000e+00 0.00000000e+00 
        </DataArray>
        <DataArray type="Float64" Name="v">