<?xml version="1.0"?>
<VTKFile type="UnstructuredGrid" version="0.1" byte_order="LittleEndian">
  <UnstructuredGrid>
    <Piece NumberOfPoints="16" NumberOfCells="9">
      <Points>
        <DataArray type="Float64" NumberOfComponents="3" format="ascii">
          0.00000000e+00 3.00000000e+00 0.00000000e+00 
1.00000000e+00 3.00000000e+00 0.00000000e+00 
2.00000000e+00 3.00000000e+00 0.00000000e+00 
3.00000000e+00 3.00000000e+00 0.00000000e+00 
0.00000000e+00 3.33333325e+00 0.00000000e+00 
1.00000000e+00 3.33333325e+00 0.00000000e+00 
2.00000000e+00 3.33333325e+00 0.00000000e+00 
3.00000000e+00 3.33333325e+00 0.00000000e+00 
0.00000000e+00 3.66666675e+00 0.00000000e+00 
1.00000000e+00 3.66666675e+00 0.00000000e+00 
2.00000000e+00 3.66666675e+00 0.00000000e+00 
3.00000000e+00 3.66666675e+00 0.00000000e+00 
0.00000000e+00 4.00000000e+00 0.00000000e+00 
1.00000000e+00 4.00000000e+00 0.00000000e+00 
2.00000000e+00 4.00000000e+00 0.00000000e+00 
3.00000000e+00 4.00000000e+00 0.00000000e+00 

        </DataArray>
      </Points>
      <Cells>
        <DataArray type="Int32" Name="connectivity" format="ascii">
0 1 5 4
4 5 9 8
8 9 13 12
1 2 6 5
5 6 10 9
9 10 14 13
2 3 7 6
6 7 11 10
10 11 15 14

        </DataArray>
        <DataArray type="Int32" Name="offsets" format="ascii">
4 8 12 16 20 24 28 32 36 
        </DataArray>
        <DataArray type="UInt8" Name="types" format="ascii">
9 9 9 9 9 9 9 9 9 
        </DataArray>
      </Cells>
      <PointData>
        <DataArray type="Float64" Name="u">
          0.00000000e+00 0.00000000e+00 0.00000000e+00 0.00000000e+00 8.88888889e+01 9.34173186e+01 9.15364724e+01 1.02966969e+02 1.55555556e+02 1.59413529e+02 1.58671986e+02 1.66010097e+02 2.00000000e+02 2.02234265e+02 2.02276062e+02 2.06782157e+02 
        </DataArray>
        <DataArray type="Float64" Name="v">
          0.00000000e+00 0.00000000e+00 0.00000000e+00 0.00000000e+00 0.00000000e+00 -1.21671838e+00 -1.81240946e+00 -4.26488100e+00 0.00000000e+00 -9.41417177e-01 -2.35825409e+00 -4.23041185e+00 0.00000000e+00 -2.39813061e+00 -4.25329015e+00 -6.83907775e+00 
        </DataArray>
        <DataArray type="Float64" Name="p">
          1.05002041e+02 -8.97317450e+02 -1.89963694e+03 -2.90195643e+03 1.29397282e+02 -8.54312010e+02 -1.83802130e+03 -2.82173059e+03 1.53792522e+02 -8.11306570e+02 -1.77640566e+03 -2.74150475e+03 1.78187762e+02 -7.68301130e+02 -1.71479002e+03 -2.66127891e+03 
        </DataArray>
      </PointData>
    </Piece>
    <Piece NumberOfPoints="16" NumberOfCells="9">
      <Points>
        <DataArray type="Float64" NumberOfComponents="3" format="ascii">
          0.00000000e+00 4.00000000e+00 0.00000000e+00 
1.00000000e+00 4.00000000e+00 0.00000000e+00 
2.00000000e+00 4.00000000e+00 0.00000000e+00 
3.00000000e+00 4.00000000e+00 0.00000000e+00 
0.00000000e+00 4.33333349e+00 0.00000000e+00 
1.00000000e+00 4.33333349e+00 0.00000000e+00 
2.00000000e+00 4.33333349e+00 0.00000000e+00 
3.00000000e+00 4.33333349e+00 0.00000000e+00 
0.00000000e+00 4.66666651e+00 0.00000000e+00 
1.00000000e+00 4.66666651e+00 0.00000000e+00 
2.00000000e+00 4.66666651e+00 0.00000000e+00 
3.00000000e+00 4.66666651e+00 0.00000000e+00 
0.00000000e+00 5.00000000e+00 0.00000000e+00 
1.00000000e+00 5.00000000e+00 0.00000000e+00 
2.00000000e+00 5.00000000e+00 0.00000000e+00 
3.00000000e+00 5.00000000e+00 0.00000000e+00 

        </DataArray>
      </Points>
      <Cells>
        <DataArray type="Int32" Name="connectivity" format="ascii">
0 1 5 4
4 5 9 8
8 9 13 12
1 2 6 5
5 6 10 9
9 10 14 13
2 3 7 6
6 7 11 10
10 11 15 14

        </DataArray>
        <DataArray type="Int32" Name="offsets" format="ascii">
4 8 12 16 20 24 28 32 36 
        </DataArray>
        <DataArray type="UInt8" Name="types" format="ascii">
9 9 9 9 9 9 9 9 9 
        </DataArray>
      </Cells>
      <PointData>
        <DataArray type="Float64" Name="u">
          2.00000000e+02 2.02234265e+02 2.02276062e+02 2.06782157e+02 2.22222222e+02 2.22933396e+02 2.22928885e+02 2.24157161e+02 2.22222222e+02 2.21216456e+02 2.21098794e+02 2.19230819e+02 2.00000000e+02 1.97491790e+02 1.97513467e+02 1.92474055e+02 
        </DataArray>
        <DataArray type="Float64" Name="v">
          0.00000000e+00 -2.39813061e+00 -4.25329015e+00 -6.83907775e+00 0.00000000e+00 -2.76552571e+00 -5.08151110e+00 -6.92139300e+00 0.00000000e+00 -2.79216579e+00 -4.99923858e+00 -7.05002505e+00 0.00000000e+00 -2.23753491e+00 -4.27703892e+00 -5.94522509e+00 
        </DataArray>
        <DataArray type="Float64" Name="p">
          2.04826738e+02 -7.38210784e+02 -1.68124831e+03 -2.62428583e+03 4.17836578e+02 -5.49798007e+02 -1.51743259e+03 -2.48506718e+03 6.30846418e+02 -3.61385229e+02 -1.35361688e+03 -2.34584852e+03 8.43856259e+02 -1.72972452e+02 -1.18980116e+03 -2.20662987e+03 
        </DataArray>
      </PointData>
    </Piece>
    <Piece NumberOfPoints="16" NumberOfCells="9">
      <Points>
        <DataArray type="Float64" NumberOfComponents="3" format="ascii">
          0.00000000e+00 5.00000000e+00 0.00000000e+00 
1.00000000e+00 5.00000000e+00 0.00000000e+00 
2.00000000e+00 5.00000000e+00 0.00000000e+00 
3.00000000e+00 5.00000000e+00 0.00000000e+00 
0.00000000e+00 5.33333349e+00 0.00000000e+00 
1.00000000e+00 5.33333349e+00 0.00000000e+00 
2.00000000e+00 5.33333349e+00 0.00000000e+00 
3.00000000e+00 5.33333349e+00 0.00000000e+00 
0.00000000e+00 5.66666651e+00 0.00000000e+00 
1.00000000e+00 5.66666651e+00 0.00000000e+00 
2.00000000e+00 5.66666651e+00 0.00000000e+00 
3.00000000e+00 5.66666651e+00 0.00000000e+00 
0.00000000e+00 6.00000000e+00 0.00000000e+00 
1.00000000e+00 6.00000000e+00 0.00000000e+00 
2.00000000e+00 6.00000000e+00 0.00000000e+00 
3.00000000e+00 6.00000000e+00 0.00000000e+00 

        </DataArray>
      </Points>
      <Cells>
        <DataArray type="Int32" Name="connectivity" format="ascii">
0 1 5 4
4 5 9 8
8 9 13 12
1 2 6 5
5 6 10 9
9 10 14 13
2 3 7 6
6 7 11 10
10 11 15 14

        </DataArray>
        <DataArray type="Int32" Name="offsets" format="ascii">
4 8 12 16 20 24 28 32 36 
        </DataArray>
        <DataArray type="UInt8" Name="types" format="ascii">
9 9 9 9 9 9 9 9 9 
        </DataArray>
      </Cells>
      <PointData>
        <DataArray type="Float64" Name="u">
          2.00000000e+02 1.97491790e+02 1.97513467e+02 1.92474055e+02 1.55555556e+02 1.51969641e+02 1.52436965e+02 1.44969854e+02 8.88888889e+01 8.52574116e+01 8.61087579e+01 7.64942925e+01 0.00000000e+00 0.00000000e+00 0.00000000e+00 0.00000000e+00 
        </DataArray>
        <DataArray type="Float64" Name="v">
          0.00000000e+00 -2.23753491e+00 -4.27703892e+00 -5.94522509e+00 0.00000000e+00 -9.02015217e-01 -2.23955997e+00 -3.74120317e+00 0.00000000e+00 -9.90959522e-01 -2.03329995e+00 -2.24445442e+00 0.00000000e+00 0.00000000e+00 0.00000000e+00 0.00000000e+00 
        </DataArray>
        <DataArray type="Float64" Name="p">
          8.57175015e+02 -1.45979601e+02 -1.14913422e+03 -2.15228884e+03 8.95585191e+02 -1.01754454e+02 -1.09909410e+03 -2.09643374e+03 9.33995366e+02 -5.75293073e+01 -1.04905398e+03 -2.04057865e+03 9.72405541e+02 -1.33041602e+01 -9.99013861e+02 -1.98472356e+03 
        </DataArray>
      </PointData>
    </Piece>
    <Piece NumberOfPoints="16" NumberOfCells="9">
      <Points>
        <DataArray type="Float64" NumberOfComponents="3" format="ascii">
          3.00000000e+00 0.00000000e+00 0.00000000e+00 
4.00000000e+00 0.00000000e+00 0.00000000e+00 
5.00000000e+00 0.00000000e+00 0.00000000e+00 
6.00000000e+00 0.00000000e+00 0.00000000e+00 
3.00000000e+00 3.33333343e-01 0.00000000e+00 
4.00000000e+00 3.33333343e-01 0.00000000e+00 
5.00000000e+00 3.33333343e-01 0.00000000e+00 
6.00000000e+00 3.33333343e-01 0.00000000e+00 
3.00000000e+00 6.66666687e-01 0.00000000e+00 
4.00000000e+00 6.66666687e-01 0.00000000e+00 
5.00000000e+00 6.66666687e-01 0.00000000e+00 
6.00000000e+00 6.66666687e-01 0.00000000e+00 
3.00000000e+00 1.00000000e+00 0.00000000e+00 
4.00000000e+00 1.00000000e+00 0.00000000e+00 
5.00000000e+00 1.00000000e+00 0.00000000e+00 
6.00000000e+00 1.00000000e+00 0.00000000e+00 

        </DataArray>
      </Points>
      <Cells>
        <DataArray type="Int32" Name="connectivity" format="ascii">
0 1 5 4
4 5 9 8
8 9 13 12
1 2 6 5
5 6 10 9
9 10 14 13
2 3 7 6
6 7 11 10
10 11 15 14

        </DataArray>
        <DataArray type="Int32" Name="offsets" format="ascii">
4 8 12 16 20 24 28 32 36 
        </DataArray>
        <DataArray type="UInt8" Name="types" format="ascii">
9 9 9 9 9 9 9 9 9 
        </DataArray>
      </Cells>
      <PointData>
        <DataArray type="Float64" Name="u">
          0.00000000e+00 0.00000000e+00 0.00000000e+00 0.00000000e+00 0.00000000e+00 -3.48463828e+00 -6.09487447e+00 -1.07502695e+01 0.00000000e+00 -6.12262661e+00 -1.09363045e+01 -1.92563136e+01 0.00000000e+00 -7.75243042e+00 -1.37426673e+01 -2.28054270e+01 
        </DataArray>
        <DataArray type="Float64" Name="v">
          0.00000000e+00 0.00000000e+00 0.00000000e+00 0.00000000e+00 0.00000000e+00 8.71174544e-01 8.89603048e-01 7.32601973e-01 0.00000000e+00 2.58601751e+00 2.59119599e+00 1.82410168e+00 0.00000000e+00 5.60551378e+00 5.75936426e+00 3.51375795e+00 
        </DataArray>
        <DataArray type="Float64" Name="p">
          -3.46792648e+03 -3.43153260e+03 -3.39513872e+03 -3.35874484e+03 -3.45970981e+03 -3.42273027e+03 -3.38575073e+03 -3.34877119e+03 -3.45149313e+03 -3.41392793e+03 -3.37636274e+03 -3.33879754e+03 -3.44327645e+03 -3.40512560e+03 -3.36697475e+03 -3.32882389e+03 
        </DataArray>
      </PointData>
    </Piece>
    <Piece NumberOfPoints="16" NumberOfCells="9">
      <Points>
        <DataArray type="Float64" NumberOfComponents="3" format="ascii">
          3.00000000e+00 1.00000000e+00 0.00000000e+00 
4.00000000e+00 1.00000000e+00 0.00000000e+00 
5.00000000e+00 1.00000000e+00 0.00000000e+00 
6.00000000e+00 1.00000000e+00 0.00000000e+00 
3.00000000e+00 1.33333337e+00 0.00000000e+00 
4.00000000e+00 1.33333337e+00 0.00000000e+00 
5.00000000e+00 1.33333337e+00 0.00000000e+00 
6.00000000e+00 1.33333337e+00 0.00000000e+00 
3.00000000e+00 1.66666663e+00 0.00000000e+00 
4.00000000e+00 1.66666663e+00 0.00000000e+00 
5.00000000e+00 1.66666663e+00 0.00000000e+00 
6.00000000e+00 1.66666663e+00 0.00000000e+00 
3.00000000e+00 2.00000000e+00 0.00000000e+00 
4.00000000e+00 2.00000000e+00 0.00000000e+00 
5.00000000e+00 2.00000000e+00 0.00000000e+00 
6.00000000e+00 2.00000000e+00 0.00000000e+00 

        </DataArray>
      </Points>
      <Cells>
        <DataArray type="Int32" Name="connectivity" format="ascii">
0 1 5 4
4 5 9 8
8 9 13 12
1 2 6 5
5 6 10 9
9 10 14 13
2 3 7 6
6 7 11 10
10 11 15 14

        </DataArray>
        <DataArray type="Int32" Name="offsets" format="ascii">
4 8 12 16 20 24 28 32 36 
        </DataArray>
        <DataArray type="UInt8" Name="types" format="ascii">
9 9 9 9 9 9 9 9 9 
        </DataArray>
      </Cells>
      <PointData>
        <DataArray type="Float64" Name="u">
          0.00000000e+00 -7.75243042e+00 -1.37426673e+01 -2.28054270e+01 0.00000000e+00 -8.23896621e+00 -1.37070135e+01 -2.06086260e+01 0.00000000e+00 -7.45890436e+00 -1.04213909e+01 -1.23440684e+01 0.00000000e+00 -4.95224654e+00 -3.30334509e+00 2.43135934e+00 
        </DataArray>
        <DataArray type="Float64" Name="v">
          0.00000000e+00 5.60551378e+00 5.75936426e+00 3.51375795e+00 0.00000000e+00 9.13374878e+00 8.71459065e+00 4.69811968e+00 0.00000000e+00 1.18251745e+01 1.05087539e+01 4.55288036e+00 0.00000000e+00 1.42694635e+01 1.07323113e+01 2.34711798e+00 
        </DataArray>
        <DataArray type="Float64" Name="p">
          -3.43397399e+03 -3.40442508e+03 -3.37487617e+03 -3.34532726e+03 -3.46457588e+03 -3.44738452e+03 -3.43019317e+03 -3.41300181e+03 -3.49517777e+03 -3.49034396e+03 -3.48551016e+03 -3.48067635e+03 -3.52577965e+03 -3.53330340e+03 -3.54082715e+03 -3.54835090e+03 
        </DataArray>
      </PointData>
    </Piece>
    <Piece NumberOfPoints="16" NumberOfCells="9">
      <Points>
        <DataArray type="Float64" NumberOfComponents="3" format="ascii">
          3.00000000e+00 2.00000000e+00 0.00000000e+00 
4.00000000e+00 2.00000000e+00 0.00000000e+00 
5.00000000e+00 2.00000000e+00 0.00000000e+00 
6.00000000e+00 2.00000000e+00 0.00000000e+00 
3.00000000e+00 2.33333325e+00 0.00000000e+00 
4.00000000e+00 2.33333325e+00 0.00000000e+00 
5.00000000e+00 2.33333325e+00 0.00000000e+00 
6.00000000e+00 2.33333325e+00 0.00000000e+00 
3.00000000e+00 2.66666675e+00 0.00000000e+00 
4.00000000e+00 2.66666675e+00 0.00000000e+00 
5.00000000e+00 2.66666675e+00 0.00000000e+00 
6.00000000e+00 2.66666675e+00 0.00000000e+00 
3.00000000e+00 3.00000000e+00 0.00000000e+00 
4.00000000e+00 3.00000000e+00 0.00000000e+00 
5.00000000e+00 3.00000000e+00 0.00000000e+00 
6.00000000e+00 3.00000000e+00 0.00000000e+00 

        </DataArray>
      </Points>
      <Cells>
        <DataArray type="Int32" Name="connectivity" format="ascii">
0 1 5 4
4 5 9 8
8 9 13 12
1 2 6 5
5 6 10 9
9 10 14 13
2 3 7 6
6 7 11 10
10 11 15 14

        </DataArray>
        <DataArray type="Int32" Name="offsets" format="ascii">
4 8 12 16 20 24 28 32 36 
        </DataArray>
        <DataArray type="UInt8" Name="types" format="ascii">
9 9 9 9 9 9 9 9 9 
        </DataArray>
      </Cells>
      <PointData>
        <DataArray type="Float64" Name="u">
          0.00000000e+00 -4.95224654e+00 -3.30334509e+00 2.43135934e+00 0.00000000e+00 5.72088535e-01 8.21123136e+00 2.56752913e+01 0.00000000e+00 1.59101272e+01 3.03835357e+01 5.69919326e+01 0.00000000e+00 5.72345928e+01 7.26489938e+01 1.00281218e+02 
        </DataArray>
        <DataArray type="Float64" Name="v">
          0.00000000e+00 1.42694635e+01 1.07323113e+01 2.34711798e+00 0.00000000e+00 1.50929136e+01 6.94715047e+00 -3.74697684e+00 0.00000000e+00 1.10339663e+01 2.53332278e+00 -8.32982876e+00 0.00000000e+00 -1.36405469e+00 -7.34831510e+00 -1.34151979e+01 
        </DataArray>
        <DataArray type="Float64" Name="p">
          -3.49421559e+03 -3.54243683e+03 -3.59065808e+03 -3.63887932e+03 -3.67139558e+03 -3.61063362e+03 -3.54987166e+03 -3.48910971e+03 -3.84857558e+03 -3.67883041e+03 -3.50908525e+03 -3.33934009e+03 -4.02575557e+03 -3.74702720e+03 -3.46829884e+03 -3.18957047e+03 
        </DataArray>
      </PointData>
    </Piece>
    <Piece NumberOfPoints="16" NumberOfCells="9">
      <Points>
        <DataArray type="Float64" NumberOfComponents="3" format="ascii">
          3.00000000e+00 3.00000000e+00 0.00000000e+00 
4.00000000e+00 3.00000000e+00 0.00000000e+00 
5.00000000e+00 3.00000000e+00 0.00000000e+00 
6.00000000e+00 3.00000000e+00 0.00000000e+00 
3.00000000e+00 3.33333325e+00 0.00000000e+00 
4.00000000e+00 3.33333325e+00 0.00000000e+00 
5.00000000e+00 3.33333325e+00 0.00000000e+00 
6.00000000e+00 3.33333325e+00 0.00000000e+00 
3.00000000e+00 3.66666675e+00 0.00000000e+00 
4.00000000e+00 3.66666675e+00 0.00000000e+00 
5.00000000e+00 3.66666675e+00 0.00000000e+00 
6.00000000e+00 3.66666675e+00 0.00000000e+00 
3.00000000e+00 4.00000000e+00 0.00000000e+00 
4.00000000e+00 4.00000000e+00 0.00000000e+00 
5.00000000e+00 4.00000000e+00 0.00000000e+00 
6.00000000e+00 4.00000000e+00 0.00000000e+00 

        </DataArray>
      </Points>
      <Cells>
        <DataArray type="Int32" Name="connectivity" format="ascii">
0 1 5 4
4 5 9 8
8 9 13 12
1 2 6 5
5 6 10 9
9 10 14 13
2 3 7 6
6 7 11 10
10 11 15 14

        </DataArray>
        <DataArray type="Int32" Name="offsets" format="ascii">
4 8 12 16 20 24 28 32 36 
        </DataArray>
        <DataArray type="UInt8" Name="types" format="ascii">
9 9 9 9 9 9 9 9 9 
        </DataArray>
      </Cells>
      <PointData>
        <DataArray type="Float64" Name="u">
          0.00000000e+00 5.72345928e+01 7.26489938e+01 1.00281218e+02 1.02966969e+02 1.13554003e+02 1.28401697e+02 1.43707822e+02 1.66010097e+02 1.67946803e+02 1.75890343e+02 1.82068182e+02 2.06782157e+02 2.03237108e+02 2.07153282e+02 2.04679793e+02 
        </DataArray>
        <DataArray type="Float64" Name="v">
          0.00000000e+00 -1.36405469e+00 -7.34831510e+00 -1.34151979e+01 -4.26488100e+00 -1.29705219e+01 -1.60181488e+01 -1.69575849e+01 -4.23041185e+00 -1.28404513e+01 -1.72683347e+01 -1.90002682e+01 -6.83907775e+00 -1.42195444e+01 -1.88777136e+01 -2.29466791e+01 
        </DataArray>
        <DataArray type="Float64" Name="p">
          -4.18093502e+03 -3.82832277e+03 -3.47571053e+03 -3.12309828e+03 -3.66874510e+03 -3.49678455e+03 -3.32482399e+03 -3.15286344e+03 -3.15655519e+03 -3.16524633e+03 -3.17393746e+03 -3.18262860e+03 -2.64436528e+03 -2.83370810e+03 -3.02305093e+03 -3.21239376e+03 
        </DataArray>
      </PointData>
    </Piece>
    <Piece NumberOfPoints="16" NumberOfCells="9">
      <Points>
        <DataArray type="Float64" NumberOfComponents="3" format="ascii">
          3.00000000e+00 4.00000000e+00 0.00000000e+00 
4.00000000e+00 4.00000000e+00 0.00000000e+00 
5.00000000e+00 4.00000000e+00 0.00000000e+00 
6.00000000e+00 4.00000000e+00 0.00000000e+00 
3.00000000e+00 4.33333349e+00 0.00000000e+00 
4.00000000e+00 4.33333349e+00 0.00000000e+00 
5.00000000e+00 4.33333349e+00 0.00000000e+00 
6.00000000e+00 4.33333349e+00 0.00000000e+00 
3.00000000e+00 4.66666651e+00 0.00000000e+00 
4.00000000e+00 4.66666651e+00 0.00000000e+00 
5.00000000e+00 4.66666651e+00 0.00000000e+00 
6.00000000e+00 4.66666651e+00 0.00000000e+00 
3.00000000e+00 5.00000000e+00 0.00000000e+00 
4.00000000e+00 5.00000000e+00 0.00000000e+00 
5.00000000e+00 5.00000000e+00 0.00000000e+00 
6.00000000e+00 5.00000000e+00 0.00000000e+00 

        </DataArray>
      </Points>
      <Cells>
        <DataArray type="Int32" Name="connectivity" format="ascii">
0 1 5 4
4 5 9 8
8 9 13 12
1 2 6 5
5 6 10 9
9 10 14 13
2 3 7 6
6 7 11 10
10 11 15 14

        </DataArray>
        <DataArray type="Int32" Name="offsets" format="ascii">
4 8 12 16 20 24 28 32 36 
        </DataArray>
        <DataArray type="UInt8" Name="types" format="ascii">
9 9 9 9 9 9 9 9 9 
        </DataArray>
      </Cells>
      <PointData>
        <DataArray type="Float64" Name="u">
          2.06782157e+02 2.03237108e+02 2.07153282e+02 2.04679793e+02 2.24157161e+02 2.18234038e+02 2.16526329e+02 2.08750258e+02 2.19230819e+02 2.10684748e+02 2.05093449e+02 1.92376215e+02 1.92474055e+02 1.82792875e+02 1.74651391e+02 1.59458557e+02 
        </DataArray>
        <DataArray type="Float64" Name="v">
          -6.83907775e+00 -1.42195444e+01 -1.88777136e+01 -2.29466791e+01 -6.92139300e+00 -1.17636840e+01 -1.71548733e+01 -2.22861417e+01 -7.05002505e+00 -1.13792477e+01 -1.53778641e+01 -2.01365845e+01 -5.94522509e+00 -6.86091219e+00 -1.08714158e+01 -1.59678593e+01 
        </DataArray>
        <DataArray type="Float64" Name="p">
          -2.50266555e+03 -2.71843991e+03 -2.93421426e+03 -3.14998862e+03 -2.17129943e+03 -2.35955199e+03 -2.54780455e+03 -2.73605710e+03 -1.83993332e+03 -2.00066408e+03 -2.16139483e+03 -2.32212558e+03 -1.50856721e+03 -1.64177616e+03 -1.77498511e+03 -1.90819406e+03 
        </DataArray>
      </PointData>
    </Piece>
    <Piece NumberOfPoints="16" NumberOfCells="9">
      <Points>
        <DataArray type="Float64" NumberOfComponents="3" format="ascii">
          3.00000000e+00 5.00000000e+00 0.00000000e+00 
4.00000000e+00 5.00000000e+00 0.00000000e+00 
5.00000000e+00 5.00000000e+00 0.00000000e+00 
6.00000000e+00 5.00000000e+00 0.00000000e+00 
3.00000000e+00 5.33333349e+00 0.00000000e+00 
4.00000000e+00 5.33333349e+00 0.00000000e+00 
5.00000000e+00 5.33333349e+00 0.00000000e+00 
6.00000000e+00 5.33333349e+00 0.00000000e+00 
3.00000000e+00 5.66666651e+00 0.00000000e+00 
4.00000000e+00 5.66666651e+00 0.00000000e+00 
5.00000000e+00 5.66666651e+00 0.00000000e+00 
6.00000000e+00 5.66666651e+00 0.00000000e+00 
3.00000000e+00 6.00000000e+00 0.00000000e+00 
4.00000000e+00 6.00000000e+00 0.00000000e+00 
5.00000000e+00 6.00000000e+00 0.00000000e+00 
6.00000000e+00 6.00000000e+00 0.00000000e+00 

        </DataArray>
      </Points>
      <Cells>
        <DataArray type="Int32" Name="connectivity" format="ascii">
0 1 5 4
4 5 9 8
8 9 13 12
1 2 6 5
5 6 10 9
9 10 14 13
2 3 7 6
6 7 11 10
10 11 15 14

        </DataArray>
        <DataArray type="Int32" Name="offsets" format="ascii">
4 8 12 16 20 24 28 32 36 
        </DataArray>
        <DataArray type="UInt8" Name="types" format="ascii">
9 9 9 9 9 9 9 9 9 
        </DataArray>
      </Cells>
      <PointData>
        <DataArray type="Float64" Name="u">
          1.92474055e+02 1.82792875e+02 1.74651391e+02 1.59458557e+02 1.44969854e+02 1.35490452e+02 1.27412102e+02 1.14315405e+02 7.64942925e+01 7.76151488e+01 7.38972584e+01 6.92001353e+01 0.00000000e+00 3.29296947e+01 3.17700695e+01 3.87252651e+01 
        </DataArray>
        <DataArray type="Float64" Name="v">
          -5.94522509e+00 -6.86091219e+00 -1.08714158e+01 -1.59678593e+01 -3.74120317e+00 -2.42377834e+00 -5.08250115e+00 -1.03936962e+01 -2.24445442e+00 -2.37872203e+00 -5.85614434e+00 -8.50158793e+00 0.00000000e+00 -6.74421976e+00 -5.12434403e+00 -3.45902712e+00 
        </DataArray>
        <DataArray type="Float64" Name="p">
          -1.57572988e+03 -1.63469309e+03 -1.69365630e+03 -1.75261952e+03 -1.69550814e+03 -1.64784294e+03 -1.60017773e+03 -1.55251253e+03 -1.81528639e+03 -1.66099278e+03 -1.50669917e+03 -1.35240555e+03 -1.93506465e+03 -1.67414262e+03 -1.41322060e+03 -1.15229857e+03 
        </DataArray>
      </PointData>
    </Piece>
    <Piece NumberOfPoints="16" NumberOfCells="9">
      <Points>
        <DataArray type="Float64" NumberOfComponents="3" format="ascii">
          3.00000000e+00 6.00000000e+00 0.00000000e+00 
4.00000000e+00 6.00000000e+00 0.00000000e+00 
5.00000000e+00 6.00000000e+00 0.00000000e+00 
6.00000000e+00 6.00000000e+00 0.00000000e+00 
3.00000000e+00 6.33333349e+00 0.00000000e+00 
4.00000000e+00 6.33333349e+00 0.00000000e+00 
5.00000000e+00 6.33333349e+00 0.00000000e+00 
6.00000000e+00 6.33333349e+00 0.00000000e+00 
3.00000000e+00 6.66666651e+00 0.00000000e+00 
4.00000000e+00 6.66666651e+00 0.00000000e+00 
5.00000000e+00 6.66666651e+00 0.00000000e+00 
6.00000000e+00 6.66666651e+00 0.00000000e+00 
3.00000000e+00 7.00000000e+00 0.00000000e+00 
4.00000000e+00 7.00000000e+00 0.00000000e+00 
5.00000000e+00 7.00000000e+00 0.00000000e+00 
6.00000000e+00 7.00000000e+00 0.00000000e+00 

        </DataArray>
      </Points>
      <Cells>
        <DataArray type="Int32" Name="connectivity" format="ascii">
0 1 5 4
4 5 9 8
8 9 13 12
1 2 6 5
5 6 10 9
9 10 14 13
2 3 7 6
6 7 11 10
10 11 15 14

        </DataArray>
        <DataArray type="Int32" Name="offsets" format="ascii">
4 8 12 16 20 24 28 32 36 
        </DataArray>
        <DataArray type="UInt8" Name="types" format="ascii">
9 9 9 9 9 9 9 9 9 
        </DataArray>
      </Cells>
      <PointData>
        <DataArray type="Float64" Name="u">
          0.00000000e+00 3.29296947e+01 3.17700695e+01 3.87252651e+01 0.00000000e+00 6.41284876e+00 8.99119018e+00 1.45265650e+01 0.00000000e+00 -2.86600699e+00 -2.26350999e+00 -9.00472353e-01 0.00000000e+00 -5.95886087e+00 -7.76923593e+00 -1.04025207e+01 
        </DataArray>
        <DataArray type="Float64" Name="v">
          0.00000000e+00 -6.74421976e+00 -5.12434403e+00 -3.45902712e+00 0.00000000e+00 -1.24264795e+01 -7.63257179e+00 -2.94355790e+00 0.00000000e+00 -1.33246607e+01 -7.69707469e+00 -3.36417570e+00 0.00000000e+00 -1.14872980e+01 -7.85445747e+00 -4.10645967e+00 
        </DataArray>
        <DataArray type="Float64" Name="p">
          -1.91272858e+03 -1.72007849e+03 -1.52742840e+03 -1.33477832e+03 -1.78894936e+03 -1.65502454e+03 -1.52109971e+03 -1.38717489e+03 -1.66517015e+03 -1.58997059e+03 -1.51477102e+03 -1.43957146e+03 -1.54139094e+03 -1.52491663e+03 -1.50844233e+03 -1.49196802e+03 
        </DataArray>
      </PointData>
    </Piece>
    <Piece NumberOfPoints="16" NumberOfCells="9">
      <Points>
        <DataArray type="Float64" NumberOfComponents="3" format="ascii">
          3.00000000e+00 7.00000000e+00 0.00000000e+00 
4.00000000e+00 7.00000000e+00 0.00000000e+00 
5.00000000e+00 7.00000000e+00 0.00000000e+00 
6.00000000e+00 7.00000000e+00 0.00000000e+00 
3.00000000e+00 7.33333349e+00 0.00000000e+00 
4.00000000e+00 7.33333349e+00 0.00000000e+00 
5.00000000e+00 7.33333349e+00 0.00000000e+00 
6.00000000e+00 7.33333349e+00 0.00000000e+00 
3.00000000e+00 7.66666651e+00 0.00000000e+00 
4.00000000e+00 7.66666651e+00 0.00000000e+00 
5.00000000e+00 7.66666651e+00 0.00000000e+00 
6.00000000e+00 7.66666651e+00 0.00000000e+00 
3.00000000e+00 8.00000000e+00 0.00000000e+00 
4.00000000e+00 8.00000000e+00 0.00000000e+00 
5.00000000e+00 8.00000000e+00 0.00000000e+00 
6.00000000e+00 8.00000000e+00 0.00000000e+00 

        </DataArray>
      </Points>
      <Cells>
        <DataArray type="Int32" Name="connectivity" format="ascii">
0 1 5 4
4 5 9 8
8 9 13 12
1 2 6 5
5 6 10 9
9 10 14 13
2 3 7 6
6 7 11 10
10 11 15 14

        </DataArray>
        <DataArray type="Int32" Name="offsets" format="ascii">
4 8 12 16 20 24 28 32 36 
        </DataArray>
        <DataArray type="UInt8" Name="types" format="ascii">
9 9 9 9 9 9 9 9 9 
        </DataArray>
      </Cells>
      <PointData>
        <DataArray type="Float64" Name="u">
          0.00000000e+00 -5.95886087e+00 -7.76923593e+00 -1.04025207e+01 0.00000000e+00 -6.84431335e+00 -1.03828753e+01 -1.48486928e+01 0.00000000e+00 -6.57563524e+00 -1.07759622e+01 -1.60422470e+01 0.00000000e+00 -5.62377206e+00 -9.56385406e+00 -1.47221983e+01 
        </DataArray>
        <DataArray type="Float64" Name="v">
          0.00000000e+00 -1.14872980e+01 -7.85445747e+00 -4.10645967e+00 0.00000000e+00 -8.83303961e+00 -6.48296473e+00 -3.75671537e+00 0.00000000e+00 -6.53462404e+00 -5.00389955e+00 -3.04004506e+00 0.00000000e+00 -3.83256895e+00 -3.13027370e+00 -1.97735192e+00 
        </DataArray>
        <DataArray type="Float64" Name="p">
          -1.55122859e+03 -1.51729948e+03 -1.48337037e+03 -1.44944126e+03 -1.51676814e+03 -1.48832109e+03 -1.45987403e+03 -1.43142698e+03 -1.48230770e+03 -1.45934270e+03 -1.43637769e+03 -1.41341269e+03 -1.44784725e+03 -1.43036430e+03 -1.41288136e+03 -1.39539841e+03 
        </DataArray>
      </PointData>
    </Piece>
    <Piece NumberOfPoints="16" NumberOfCells="9">
      <Points>
        <DataArray type="Float64" NumberOfComponents="3" format="ascii">
          3.00000000e+00 8.00000000e+00 0.00000000e+00 
4.00000000e+00 8.00000000e+00 0.00000000e+00 
5.00000000e+00 8.00000000e+00 0.00000000e+00 
6.00000000e+00 8.00000000e+00 0.00000000e+00 
3.00000000e+00 8.33333302e+00 0.00000000e+00 
4.00000000e+00 8.33333302e+00 0.00000000e+00 
5.00000000e+00 8.33333302e+00 0.00000000e+00 
6.00000000e+00 8.33333302e+00 0.00000000e+00 
3.00000000e+00 8.66666698e+00 0.00000000e+00 
4.00000000e+00 8.66666698e+00 0.00000000e+00 
5.00000000e+00 8.66666698e+00 0.00000000e+00 
6.00000000e+00 8.66666698e+00 0.00000000e+00 
3.00000000e+00 9.00000000e+00 0.00000000e+00 
4.00000000e+00 9.00000000e+00 0.00000000e+00 
5.00000000e+00 9.00000000e+00 0.00000000e+00 
6.00000000e+00 9.00000000e+00 0.00000000e+00 

        </DataArray>
      </Points>
      <Cells>
        <DataArray type="Int32" Name="connectivity" format="ascii">
0 1 5 4
4 5 9 8
8 9 13 12
1 2 6 5
5 6 10 9
9 10 14 13
2 3 7 6
6 7 11 10
10 11 15 14

        </DataArray>
        <DataArray type="Int32" Name="offsets" format="ascii">
4 8 12 16 20 24 28 32 36 
        </DataArray>
        <DataArray type="UInt8" Name="types" format="ascii">
9 9 9 9 9 9 9 9 9 
        </DataArray>
      </Cells>
      <PointData>
        <DataArray type="Float64" Name="u">
          0.00000000e+00 -5.62377206e+00 -9.56385406e+00 -1.47221983e+01 0.00000000e+00 -4.19649079e+00 -7.16121896e+00 -1.14666452e+01 0.00000000e+00 -2.32674482e+00 -3.87098109e+00 -6.49183525e+00 0.00000000e+00 0.00000000e+00 0.00000000e+00 0.00000000e+00 
        </DataArray>
        <DataArray type="Float64" Name="v">
          0.00000000e+00 -3.83256895e+00 -3.13027370e+00 -1.97735192e+00 0.00000000e+00 -1.72359285e+00 -1.49291777e+00 -9.11791876e-01 0.00000000e+00 -5.55258214e-01 -5.18990074e-01 -3.03617208e-01 0.00000000e+00 0.00000000e+00 0.00000000e+00 0.00000000e+00 
        </DataArray>
        <DataArray type="Float64" Name="p">
          -1.45429386e+03 -1.43431701e+03 -1.41434017e+03 -1.39436333e+03 -1.46124515e+03 -1.44069067e+03 -1.42013619e+03 -1.39958172e+03 -1.46819644e+03 -1.44706433e+03 -1.42593221e+03 -1.40480010e+03 -1.47514773e+03 -1.45343798e+03 -1.43172823e+03 -1.41001848e+03 
        </DataArray>
      </PointData>
    </Piece>
    <Piece NumberOfPoints="16" NumberOfCells="9">
      <Points>
        <DataArray type="Float64" NumberOfComponents="3" format="ascii">
          6.00000000e+00 0.00000000e+00 0.00000000e+00 
7.00000000e+00 0.00000000e+00 0.00000000e+00 
8.00000000e+00 0.00000000e+00 0.00000000e+00 
9.00000000e+00 0.00000000e+00 0.00000000e+00 
6.00000000e+00 3.33333343e-01 0.00000000e+00 
7.00000000e+00 3.33333343e-01 0.00000000e+00 
8.00000000e+00 3.33333343e-01 0.00000000e+00 
9.00000000e+00 3.33333343e-01 0.00000000e+00 
6.00000000e+00 6.66666687e-01 0.00000000e+00 
7.00000000e+00 6.66666687e-01 0.00000000e+00 
8.00000000e+00 6.66666687e-01 0.00000000e+00 
9.00000000e+00 6.66666687e-01 0.00000000e+00 
6.00000000e+00 1.00000000e+00 0.00000000e+00 
7.00000000e+00 1.00000000e+00 0.00000000e+00 
8.00000000e+00 1.00000000e+00 0.00000000e+00 
9.00000000e+00 1.00000000e+00 0.00000000e+00 

        </DataArray>
      </Points>
      <Cells>
        <DataArray type="Int32" Name="connectivity" format="ascii">
0 1 5 4
4 5 9 8
8 9 13 12
1 2 6 5
5 6 10 9
9 10 14 13
2 3 7 6
6 7 11 10
10 11 15 14

        </DataArray>
        <DataArray type="Int32" Name="offsets" format="ascii">
4 8 12 16 20 24 28 32 36 
        </DataArray>
        <DataArray type="UInt8" Name="types" format="ascii">
9 9 9 9 9 9 9 9 9 
        </DataArray>
      </Cells>
      <PointData>
        <DataArray type="Float64" Name="u">