<?xml version="1.0"?>
<VTKFile type="UnstructuredGrid" version="0.1" byte_order="LittleEndian">
  <UnstructuredGrid>
    <Piece NumberOfPoints="16" NumberOfCells="9">
      <Points>
        <DataArray type="Float64" NumberOfComponents="3" format="ascii">
          0.00000000e+00 3.00000000e+00 0.00000000e+00 
1.00000000e+00 3.00000000e+00 0.00000000e+00 
2.00000000e+00 3.00000000e+00 0.00000000e+00 
3.00000000e+00 3.00000000e+00 0.00000000e+00 
0.00000000e+00 3.33333325e+00 0.00000000e+00 
1.00000000e+00 3.33333325e+00 0.00000000e+00 
2.00000000e+00 3.33333325e+00 0.00000000e+00 
3.00000000e+00 3.33333325e+00 0.00000000e+00 
0.00000000e+00 3.66666675e+00 0.00000000e+00 
1.00000000e+00 3.66666675e+00 0.00000000e+00 
2.00000000e+00 3.66666675e+00 0.00000000e+00 
3.00000000e+00 3.66666675e+00 0.00000000e+00 
0.00000000e+00 4.00000000e+00 0.00000000e+00 
1.00000000e+00 4.00000000e+00 0.00000000e+00 
2.00000000e+00 4.00000000e+00 0.00000000e+00 
3.00000000e+00 4.00000000e+00 0.00000000e+00 

        </DataArray>
      </Points>
      <Cells>
        <DataArray type="Int32" Name="connectivity" format="ascii">
0 1 5 4
4 5 9 8
8 9 13 12
1 2 6 5
5 6 10 9
9 10 14 13
2 3 7 6
6 7 11 10
10 11 15 14

        </DataArray>
        <DataArray type="Int32" Name="offsets" format="ascii">
4 8 12 16 20 24 28 32 36 
        </DataArray>
        <DataArray type="UInt8" Name="types" format="ascii">
9 9 9 9 9 9 9 9 9 
        </DataArray>
      </Cells>
      <PointData>
        <DataArray type="Float64" Name="u">
          0.00000000e+00 0.00000000e+00 0.00000000e+00 0.00000000e+00 8.88888889e+01 9.43827394e+01 9.20325010e+01 1.04863228e+02 1.55555556e+02 1.59827654e+02 1.58859678e+02 1.66602857e+02 2.00000000e+02 2.02440641e+02 2.02254028e+02 2.07317734e+02 
        </DataArray>
        <DataArray type="Float64" Name="v">
          0.00000000e+00 0.00000000e+00 0.00000000e+00 0.00000000e+00 0.00000000e+00 -1.53756071e+00 -2.24986911e+00 -4.39426190e+00 0.00000000e+00 -1.05716082e+00 -2.56824355e+00 -4.38471154e+00 0.00000000e+00 -2.74053027e+00 -4.70198545e+00 -7.13333837e+00 
        </DataArray>
        <DataArray type="Float64" Name="p">
          -1.61645186e+03 -2.34922237e+03 -3.08199288e+03 -3.81476339e+03 -1.57804413e+03 -2.29864706e+03 -3.01924998e+03 -3.73985291e+03 -1.53963640e+03 -2.24807174e+03 -2.95650708e+03 -3.66494243e+03 -1.50122867e+03 -2.19749643e+03 -2.89376419e+03 -3.59003195e+03 
        </DataArray>
      </PointData>
    </Piece>
    <Piece NumberOfPoints="16" NumberOfCells="9">
      <Points>
        <DataArray type="Float64" NumberOfComponents="3" format="ascii">
          0.00000000e+00 4.00000000e+00 0.00000000e+00 
1.00000000e+00 4.00000000e+00 0.00000000e+00 
2.00000000e+00 4.00000000e+00 0.00000000e+00 
3.00000000e+00 4.00000000e+00 0.00000000e+00 
0.00000000e+00 4.33333349e+00 0.00000000e+00 
1.00000000e+00 4.33333349e+00 0.00000000e+00 
2.00000000e+00 4.33333349e+00 0.00000000e+00 
3.00000000e+00 4.33333349e+00 0.00000000e+00 
0.00000000e+00 4.66666651e+00 0.00000000e+00 
1.00000000e+00 4.66666651e+00 0.00000000e+00 
2.00000000e+00 4.66666651e+00 0.00000000e+00 
3.00000000e+00 4.66666651e+00 0.00000000e+00 
0.00000000e+00 5.00000000e+00 0.00000000e+00 
1.00000000e+00 5.00000000e+00 0.00000000e+00 
2.00000000e+00 5.00000000e+00 0.00000000e+00 
3.00000000e+00 5.00000000e+00 0.00000000e+00 

        </DataArray>
      </Points>
      <Cells>
        <DataArray type="Int32" Name="connectivity" format="ascii">
0 1 5 4
4 5 9 8
8 9 13 12
1 2 6 5
5 6 10 9
9 10 14 13
2 3 7 6
6 7 11 10
10 11 15 14

        </DataArray>
        <DataArray type="Int32" Name="offsets" format="ascii">
4 8 12 16 20 24 28 32 36 
        </DataArray>
        <DataArray type="UInt8" Name="types" format="ascii">
9 9 9 9 9 9 9 9 9 
        </DataArray>
      </Cells>
      <PointData>
        <DataArray type="Float64" Name="u">
          2.00000000e+02 2.02440641e+02 2.02254028e+02 2.07317734e+02 2.22222222e+02 2.23074817e+02 2.22925819e+02 2.24254570e+02 2.22222222e+02 2.21291164e+02 2.20996531e+02 2.19193068e+02 2.00000000e+02 1.97543872e+02 1.97356646e+02 1.92166313e+02 
        </DataArray>
        <DataArray type="Float64" Name="v">
          0.00000000e+00 -2.74053027e+00 -4.70198545e+00 -7.13333837e+00 0.00000000e+00 -3.14389678e+00 -5.55934518e+00 -7.30913804e+00 0.00000000e+00 -3.15696526e+00 -5.49650836e+00 -7.36113801e+00 0.00000000e+00 -2.60565181e+00 -4.72041755e+00 -6.31388629e+00 
        </DataArray>
        <DataArray type="Float64" Name="p">
          -1.47544781e+03 -2.16861665e+03 -2.86178549e+03 -3.55495433e+03 -1.22654208e+03 -1.96349639e+03 -2.70045071e+03 -3.43740503e+03 -9.77636347e+02 -1.75837614e+03 -2.53911593e+03 -3.31985573e+03 -7.28730614e+02 -1.55325589e+03 -2.37778116e+03 -3.20230643e+03 
        </DataArray>
      </PointData>
    </Piece>
    <Piece NumberOfPoints="16" NumberOfCells="9">
      <Points>
        <DataArray type="Float64" NumberOfComponents="3" format="ascii">
          0.00000000e+00 5.00000000e+00 0.00000000e+00 
1.00000000e+00 5.00000000e+00 0.00000000e+00 
2.00000000e+00 5.00000000e+00 0.00000000e+00 
3.00000000e+00 5.00000000e+00 0.00000000e+00 
0.00000000e+00 5.33333349e+00 0.00000000e+00 
1.00000000e+00 5.33333349e+00 0.00000000e+00 
2.00000000e+00 5.33333349e+00 0.00000000e+00 
3.00000000e+00 5.33333349e+00 0.00000000e+00 
0.00000000e+00 5.66666651e+00 0.00000000e+00 
1.00000000e+00 5.66666651e+00 0.00000000e+00 
2.00000000e+00 5.66666651e+00 0.00000000e+00 
3.00000000e+00 5.66666651e+00 0.00000000e+00 
0.00000000e+00 6.00000000e+00 0.00000000e+00 
1.00000000e+00 6.00000000e+00 0.00000000e+00 
2.00000000e+00 6.00000000e+00 0.00000000e+00 
3.00000000e+00 6.00000000e+00 0.00000000e+00 

        </DataArray>
      </Points>
      <Cells>
        <DataArray type="Int32" Name="connectivity" format="ascii">
0 1 5 4
4 5 9 8
8 9 13 12
1 2 6 5
5 6 10 9
9 10 14 13
2 3 7 6
6 7 11 10
10 11 15 14

        </DataArray>
        <DataArray type="Int32" Name="offsets" format="ascii">
4 8 12 16 20 24 28 32 36 
        </DataArray>
        <DataArray type="UInt8" Name="types" format="ascii">
9 9 9 9 9 9 9 9 9 
        </DataArray>
      </Cells>
      <PointData>
        <DataArray type="Float64" Name="u">
          2.00000000e+02 1.97543872e+02 1.97356646e+02 1.92166313e+02 1.55555556e+02 1.51734803e+02 1.52000511e+02 1.44314308e+02 8.88888889e+01 8.44261492e+01 8.53841739e+01 7.44492710e+01 0.00000000e+00 0.00000000e+00 0.00000000e+00 0.00000000e+00 
        </DataArray>
        <DataArray type="Float64" Name="v">
          0.00000000e+00 -2.60565181e+00 -4.72041755e+00 -6.31388629e+00 0.00000000e+00 -1.04450987e+00 -2.43968738e+00 -3.96970798e+00 0.00000000e+00 -1.32751572e+00 -2.38790019e+00 -2.72904153e+00 0.00000000e+00 0.00000000e+00 0.00000000e+00 0.00000000e+00 
        </DataArray>
        <DataArray type="Float64" Name="p">
          -7.10764173e+02 -1.52407264e+03 -2.33738110e+03 -3.15068956e+03 -6.62821182e+02 -1.47399401e+03 -2.28516684e+03 -3.09633968e+03 -6.14878190e+02 -1.42391539e+03 -2.23295259e+03 -3.04198979e+03 -5.66935199e+02 -1.37383677e+03 -2.18073833e+03 -2.98763990e+03 
        </DataArray>
      </PointData>
    </Piece>
    <Piece NumberOfPoints="16" NumberOfCells="9">
      <Points>
        <DataArray type="Float64" NumberOfComponents="3" format="ascii">
          3.00000000e+00 0.00000000e+00 0.00000000e+00 
4.00000000e+00 0.00000000e+00 0.00000000e+00 
5.00000000e+00 0.00000000e+00 0.00000000e+00 
6.00000000e+00 0.00000000e+00 0.00000000e+00 
3.00000000e+00 3.33333343e-01 0.00000000e+00 
4.00000000e+00 3.33333343e-01 0.00000000e+00 
5.00000000e+00 3.33333343e-01 0.00000000e+00 
6.00000000e+00 3.33333343e-01 0.00000000e+00 
3.00000000e+00 6.66666687e-01 0.00000000e+00 
4.00000000e+00 6.66666687e-01 0.00000000e+00 
5.00000000e+00 6.66666687e-01 0.00000000e+00 
6.00000000e+00 6.66666687e-01 0.00000000e+00 
3.00000000e+00 1.00000000e+00 0.00000000e+00 
4.00000000e+00 1.00000000e+00 0.00000000e+00 
5.00000000e+00 1.00000000e+00 0.00000000e+00 
6.00000000e+00 1.00000000e+00 0.00000000e+00 

        </DataArray>
      </Points>
      <Cells>
        <DataArray type="Int32" Name="connectivity" format="ascii">
0 1 5 4
4 5 9 8
8 9 13 12
1 2 6 5
5 6 10 9
9 10 14 13
2 3 7 6
6 7 11 10
10 11 15 14

        </DataArray>
        <DataArray type="Int32" Name="offsets" format="ascii">
4 8 12 16 20 24 28 32 36 
        </DataArray>
        <DataArray type="UInt8" Name="types" format="ascii">
9 9 9 9 9 9 9 9 9 
        </DataArray>
      </Cells>
      <PointData>
        <DataArray type="Float64" Name="u">
          0.00000000e+00 0.00000000e+00 0.00000000e+00 0.00000000e+00 0.00000000e+00 -2.70034129e+00 -5.14772099e+00 -8.40928843e+00 0.00000000e+00 -4.95060383e+00 -9.47579224e+00 -1.61886724e+01 0.00000000e+00 -6.50949366e+00 -1.23065004e+01 -2.02611955e+01 
        </DataArray>
        <DataArray type="Float64" Name="v">
          0.00000000e+00 0.00000000e+00 0.00000000e+00 0.00000000e+00 0.00000000e+00 7.17847737e-01 6.27355637e-01 4.90881524e-01 0.00000000e+00 2.15827098e+00 1.99804344e+00 1.52910168e+00 0.00000000e+00 4.75172337e+00 4.70105142e+00 2.99336828e+00 
        </DataArray>
        <DataArray type="Float64" Name="p">
          -4.46586196e+03 -4.45291377e+03 -4.43996558e+03 -4.42701738e+03 -4.46155357e+03 -4.44713063e+03 -4.43270769e+03 -4.41828475e+03 -4.45724518e+03 -4.44134749e+03 -4.42544980e+03 -4.40955212e+03 -4.45293678e+03 -4.43556435e+03 -4.41819192e+03 -4.40081948e+03 
        </DataArray>
      </PointData>
    </Piece>
    <Piece NumberOfPoints="16" NumberOfCells="9">
      <Points>
        <DataArray type="Float64" NumberOfComponents="3" format="ascii">
          3.00000000e+00 1.00000000e+00 0.00000000e+00 
4.00000000e+00 1.00000000e+00 0.00000000e+00 
5.00000000e+00 1.00000000e+00 0.00000000e+00 
6.00000000e+00 1.00000000e+00 0.00000000e+00 
3.00000000e+00 1.33333337e+00 0.00000000e+00 
4.00000000e+00 1.33333337e+00 0.00000000e+00 
5.00000000e+00 1.33333337e+00 0.00000000e+00 
6.00000000e+00 1.33333337e+00 0.00000000e+00 
3.00000000e+00 1.66666663e+00 0.00000000e+00 
4.00000000e+00 1.66666663e+00 0.00000000e+00 
5.00000000e+00 1.66666663e+00 0.00000000e+00 
6.00000000e+00 1.66666663e+00 0.00000000e+00 
3.00000000e+00 2.00000000e+00 0.00000000e+00 
4.00000000e+00 2.00000000e+00 0.00000000e+00 
5.00000000e+00 2.00000000e+00 0.00000000e+00 
6.00000000e+00 2.00000000e+00 0.00000000e+00 

        </DataArray>
      </Points>
      <Cells>
        <DataArray type="Int32" Name="connectivity" format="ascii">
0 1 5 4
4 5 9 8
8 9 13 12
1 2 6 5
5 6 10 9
9 10 14 13
2 3 7 6
6 7 11 10
10 11 15 14

        </DataArray>
        <DataArray type="Int32" Name="offsets" format="ascii">
4 8 12 16 20 24 28 32 36 
        </DataArray>
        <DataArray type="UInt8" Name="types" format="ascii">
9 9 9 9 9 9 9 9 9 
        </DataArray>
      </Cells>
      <PointData>
        <DataArray type="Float64" Name="u">
          0.00000000e+00 -6.50949366e+00 -1.23065004e+01 -2.02611955e+01 0.00000000e+00 -7.19426887e+00 -1.27841026e+01 -1.93439080e+01 0.00000000e+00 -6.85743109e+00 -1.03238832e+01 -1.29377218e+01 0.00000000e+00 -5.07981363e+00 -4.18615788e+00 -2.98026839e-01 
        </DataArray>
        <DataArray type="Float64" Name="v">
          0.00000000e+00 4.75172337e+00 4.70105142e+00 2.99336828e+00 0.00000000e+00 7.91960644e+00 7.35638288e+00 4.54536327e+00 0.00000000e+00 1.03957738e+01 9.06847848e+00 4.70346451e+00 0.00000000e+00 1.28187888e+01 9.62542370e+00 3.15375910e+00 
        </DataArray>
        <DataArray type="Float64" Name="p">
          -4.44632235e+03 -4.43403375e+03 -4.42174516e+03 -4.40945656e+03 -4.47017886e+03 -4.46556290e+03 -4.46094695e+03 -4.45633100e+03 -4.49403536e+03 -4.49709205e+03 -4.50014874e+03 -4.50320543e+03 -4.51789186e+03 -4.52862120e+03 -4.53935053e+03 -4.55007986e+03 
        </DataArray>
      </PointData>
    </Piece>
    <Piece NumberOfPoints="16" NumberOfCells="9">
      <Points>
        <DataArray type="Float64" NumberOfComponents="3" format="ascii">
          3.00000000e+00 2.00000000e+00 0.00000000e+00 
4.00000000e+00 2.00000000e+00 0.00000000e+00 
5.00000000e+00 2.00000000e+00 0.00000000e+00 
6.00000000e+00 2.00000000e+00 0.00000000e+00 
3.00000000e+00 2.33333325e+00 0.00000000e+00 
4.00000000e+00 2.33333325e+00 0.00000000e+00 
5.00000000e+00 2.33333325e+00 0.00000000e+00 
6.00000000e+00 2.33333325e+00 0.00000000e+00 
3.00000000e+00 2.66666675e+00 0.00000000e+00 
4.00000000e+00 2.66666675e+00 0.00000000e+00 
5.00000000e+00 2.66666675e+00 0.00000000e+00 
6.00000000e+00 2.66666675e+00 0.00000000e+00 
3.00000000e+00 3.00000000e+00 0.00000000e+00 
4.00000000e+00 3.00000000e+00 0.00000000e+00 
5.00000000e+00 3.00000000e+00 0.00000000e+00 
6.00000000e+00 3.00000000e+00 0.00000000e+00 

        </DataArray>
      </Points>
      <Cells>
        <DataArray type="Int32" Name="connectivity" format="ascii">
0 1 5 4
4 5 9 8
8 9 13 12
1 2 6 5
5 6 10 9
9 10 14 13
2 3 7 6
6 7 11 10
10 11 15 14

        </DataArray>
        <DataArray type="Int32" Name="offsets" format="ascii">
4 8 12 16 20 24 28 32 36 
        </DataArray>
        <DataArray type="UInt8" Name="types" format="ascii">
9 9 9 9 9 9 9 9 9 
        </DataArray>
      </Cells>
      <PointData>
        <DataArray type="Float64" Name="u">
          0.00000000e+00 -5.07981363e+00 -4.18615788e+00 -2.98026839e-01 0.00000000e+00 -6.22881761e-01 6.18208174e+00 2.14388542e+01 0.00000000e+00 1.31984192e+01 2.73183749e+01 5.26585651e+01 0.00000000e+00 5.52198575e+01 7.15813948e+01 9.85704805e+01 
        </DataArray>
        <DataArray type="Float64" Name="v">
          0.00000000e+00 1.28187888e+01 9.62542370e+00 3.15375910e+00 0.00000000e+00 1.38743717e+01 6.38406148e+00 -2.57681425e+00 0.00000000e+00 1.05446746e+01 2.85761474e+00 -7.08788548e+00 0.00000000e+00 -1.07625697e+00 -6.82387022e+00 -1.26681256e+01 
        </DataArray>
        <DataArray type="Float64" Name="p">
          -4.49341807e+03 -4.53733862e+03 -4.58125917e+03 -4.62517972e+03 -4.62355324e+03 -4.58618981e+03 -4.54882638e+03 -4.51146296e+03 -4.75368840e+03 -4.63504100e+03 -4.51639360e+03 -4.39774620e+03 -4.88382356e+03 -4.68389219e+03 -4.48396081e+03 -4.28402944e+03 
        </DataArray>
      </PointData>
    </Piece>
    <Piece NumberOfPoints="16" NumberOfCells="9">
      <Points>
        <DataArray type="Float64" NumberOfComponents="3" format="ascii">
          3.00000000e+00 3.00000000e+00 0.00000000e+00 
4.00000000e+00 3.00000000e+00 0.00000000e+00 
5.00000000e+00 3.00000000e+00 0.00000000e+00 
6.00000000e+00 3.00000000e+00 0.00000000e+00 
3.00000000e+00 3.33333325e+00 0.00000000e+00 
4.00000000e+00 3.33333325e+00 0.00000000e+00 
5.00000000e+00 3.33333325e+00 0.00000000e+00 
6.00000000e+00 3.33333325e+00 0.00000000e+00 
3.00000000e+00 3.66666675e+00 0.00000000e+00 
4.00000000e+00 3.66666675e+00 0.00000000e+00 
5.00000000e+00 3.66666675e+00 0.00000000e+00 
6.00000000e+00 3.66666675e+00 0.00000000e+00 
3.00000000e+00 4.00000000e+00 0.00000000e+00 
4.00000000e+00 4.00000000e+00 0.00000000e+00 
5.00000000e+00 4.00000000e+00 0.00000000e+00 
6.00000000e+00 4.00000000e+00 0.00000000e+00 

        </DataArray>
      </Points>
      <Cells>
        <DataArray type="Int32" Name="connectivity" format="ascii">
0 1 5 4
4 5 9 8
8 9 13 12
1 2 6 5
5 6 10 9
9 10 14 13
2 3 7 6
6 7 11 10
10 11 15 14

        </DataArray>
        <DataArray type="Int32" Name="offsets" format="ascii">
4 8 12 16 20 24 28 32 36 
        </DataArray>
        <DataArray type="UInt8" Name="types" format="ascii">
9 9 9 9 9 9 9 9 9 
        </DataArray>
      </Cells>
      <PointData>
        <DataArray type="Float64" Name="u">
          0.00000000e+00 5.52198575e+01 7.15813948e+01 9.85704805e+01 1.04863228e+02 1.14724320e+02 1.29824231e+02 1.45317973e+02 1.66602857e+02 1.69682913e+02 1.77746278e+02 1.84901274e+02 2.07317734e+02 2.04920110e+02 2.09170696e+02 2.08408415e+02 
        </DataArray>
        <DataArray type="Float64" Name="v">
          0.00000000e+00 -1.07625697e+00 -6.82387022e+00 -1.26681256e+01 -4.39426190e+00 -1.25519230e+01 -1.58174366e+01 -1.70196312e+01 -4.38471154e+00 -1.18995877e+01 -1.63474388e+01 -1.85590574e+01 -7.13333837e+00 -1.39739203e+01 -1.87302466e+01 -2.30962176e+01 
        </DataArray>
        <DataArray type="Float64" Name="p">
          -5.02854406e+03 -4.76789143e+03 -4.50723879e+03 -4.24658615e+03 -4.58288601e+03 -4.46686211e+03 -4.35083821e+03 -4.23481431e+03 -4.13722795e+03 -4.16583279e+03 -4.19443763e+03 -4.22304247e+03 -3.69156989e+03 -3.86480347e+03 -4.03803705e+03 -4.21127063e+03 
        </DataArray>
      </PointData>
    </Piece>
    <Piece NumberOfPoints="16" NumberOfCells="9">
      <Points>
        <DataArray type="Float64" NumberOfComponents="3" format="ascii">
          3.00000000e+00 4.00000000e+00 0.00000000e+00 
4.00000000e+00 4.00000000e+00 0.00000000e+00 
5.00000000e+00 4.00000000e+00 0.00000000e+00 
6.00000000e+00 4.00000000e+00 0.00000000e+00 
3.00000000e+00 4.33333349e+00 0.00000000e+00 
4.00000000e+00 4.33333349e+00 0.00000000e+00 
5.00000000e+00 4.33333349e+00 0.00000000e+00 
6.00000000e+00 4.33333349e+00 0.00000000e+00 
3.00000000e+00 4.66666651e+00 0.00000000e+00 
4.00000000e+00 4.66666651e+00 0.00000000e+00 
5.00000000e+00 4.66666651e+00 0.00000000e+00 
6.00000000e+00 4.66666651e+00 0.00000000e+00 
3.00000000e+00 5.00000000e+00 0.00000000e+00 
4.00000000e+00 5.00000000e+00 0.00000000e+00 
5.00000000e+00 5.00000000e+00 0.00000000e+00 
6.00000000e+00 5.00000000e+00 0.00000000e+00 

        </DataArray>
      </Points>
      <Cells>
        <DataArray type="Int32" Name="connectivity" format="ascii">
0 1 5 4
4 5 9 8
8 9 13 12
1 2 6 5
5 6 10 9
9 10 14 13
2 3 7 6
6 7 11 10
10 11 15 14

        </DataArray>
        <DataArray type="Int32" Name="offsets" format="ascii">
4 8 12 16 20 24 28 32 36 
        </DataArray>
        <DataArray type="UInt8" Name="types" format="ascii">
9 9 9 9 9 9 9 9 9 
        </DataArray>
      </Cells>
      <PointData>
        <DataArray type="Float64" Name="u">
          2.07317734e+02 2.04920110e+02 2.09170696e+02 2.08408415e+02 2.24254570e+02 2.19919971e+02 2.18419573e+02 2.12147496e+02 2.19193068e+02 2.11831111e+02 2.06404968e+02 1.94692590e+02 1.92166313e+02 1.83404172e+02 1.75119749e+02 1.60240583e+02 
        </DataArray>
        <DataArray type="Float64" Name="v">
          -7.13333837e+00 -1.39739203e+01 -1.87302466e+01 -2.30962176e+01 -7.30913804e+00 -1.20594519e+01 -1.73727161e+01 -2.24961217e+01 -7.36113801e+00 -1.19543180e+01 -1.61303429e+01 -2.07569549e+01 -6.31388629e+00 -7.83612802e+00 -1.17462059e+01 -1.63952674e+01 
        </DataArray>
        <DataArray type="Float64" Name="p">
          -3.58973685e+03 -3.77235819e+03 -3.95497952e+03 -4.13760086e+03 -3.25053270e+03 -3.41250272e+03 -3.57447275e+03 -3.73644277e+03 -2.91132855e+03 -3.05264726e+03 -3.19396597e+03 -3.33528469e+03 -2.57212440e+03 -2.69279180e+03 -2.81345920e+03 -2.93412660e+03 
        </DataArray>
      </PointData>
    </Piece>
    <Piece NumberOfPoints="16" NumberOfCells="9">
      <Points>
        <DataArray type="Float64" NumberOfComponents="3" format="ascii">
          3.00000000e+00 5.00000000e+00 0.00000000e+00 
4.00000000e+00 5.00000000e+00 0.00000000e+00 
5.00000000e+00 5.00000000e+00 0.00000000e+00 
6.00000000e+00 5.00000000e+00 0.00000000e+00 
3.00000000e+00 5.33333349e+00 0.00000000e+00 
4.00000000e+00 5.33333349e+00 0.00000000e+00 
5.00000000e+00 5.33333349e+00 0.00000000e+00 
6.00000000e+00 5.33333349e+00 0.00000000e+00 
3.00000000e+00 5.66666651e+00 0.00000000e+00 
4.00000000e+00 5.66666651e+00 0.00000000e+00 
5.00000000e+00 5.66666651e+00 0.00000000e+00 
6.00000000e+00 5.66666651e+00 0.00000000e+00 
3.00000000e+00 6.00000000e+00 0.00000000e+00 
4.00000000e+00 6.00000000e+00 0.00000000e+00 
5.00000000e+00 6.00000000e+00 0.00000000e+00 
6.00000000e+00 6.00000000e+00 0.00000000e+00 

        </DataArray>
      </Points>
      <Cells>
        <DataArray type="Int32" Name="connectivity" format="ascii">
0 1 5 4
4 5 9 8
8 9 13 12
1 2 6 5
5 6 10 9
9 10 14 13
2 3 7 6
6 7 11 10
10 11 15 14

        </DataArray>
        <DataArray type="Int32" Name="offsets" format="ascii">
4 8 12 16 20 24 28 32 36 
        </DataArray>
        <DataArray type="UInt8" Name="types" format="ascii">
9 9 9 9 9 9 9 9 9 
        </DataArray>
      </Cells>
      <PointData>
        <DataArray type="Float64" Name="u">
          1.92166313e+02 1.83404172e+02 1.75119749e+02 1.60240583e+02 1.44314308e+02 1.34514887e+02 1.25736613e+02 1.11693749e+02 7.44492710e+01 7.41908488e+01 6.94255098e+01 6.33700204e+01 0.00000000e+00 2.91598684e+01 2.75047320e+01 3.33261653e+01 
        </DataArray>
        <DataArray type="Float64" Name="v">
          -6.31388629e+00 -7.83612802e+00 -1.17462059e+01 -1.63952674e+01 -3.96970798e+00 -3.25908169e+00 -5.60970126e+00 -1.02803549e+01 -2.72904153e+00 -3.18596940e+00 -6.43106510e+00 -8.74242484e+00 0.00000000e+00 -6.62371369e+00 -4.99639006e+00 -3.36284619e+00 
        </DataArray>
        <DataArray type="Float64" Name="p">
          -2.61176194e+03 -2.67102639e+03 -2.73029085e+03 -2.78955530e+03 -2.68480832e+03 -2.66324104e+03 -2.64167377e+03 -2.62010649e+03 -2.75785470e+03 -2.65545569e+03 -2.55305668e+03 -2.45065767e+03 -2.83090108e+03 -2.64767034e+03 -2.46443960e+03 -2.28120886e+03 
        </DataArray>
      </PointData>
    </Piece>
    <Piece NumberOfPoints="16" NumberOfCells="9">
      <Points>
        <DataArray type="Float64" NumberOfComponents="3" format="ascii">
          3.00000000e+00 6.00000000e+00 0.00000000e+00 
4.00000000e+00 6.00000000e+00 0.00000000e+00 
5.00000000e+00 6.00000000e+00 0.00000000e+00 
6.00000000e+00 6.00000000e+00 0.00000000e+00 
3.00000000e+00 6.33333349e+00 0.00000000e+00 
4.00000000e+00 6.33333349e+00 0.00000000e+00 
5.00000000e+00 6.33333349e+00 0.00000000e+00 
6.00000000e+00 6.33333349e+00 0.00000000e+00 
3.00000000e+00 6.66666651e+00 0.00000000e+00 
4.00000000e+00 6.66666651e+00 0.00000000e+00 
5.00000000e+00 6.66666651e+00 0.00000000e+00 
6.00000000e+00 6.66666651e+00 0.00000000e+00 
3.00000000e+00 7.00000000e+00 0.00000000e+00 
4.00000000e+00 7.00000000e+00 0.00000000e+00 
5.00000000e+00 7.00000000e+00 0.00000000e+00 
6.00000000e+00 7.00000000e+00 0.00000000e+00 

        </DataArray>
      </Points>
      <Cells>
        <DataArray type="Int32" Name="connectivity" format="ascii">
0 1 5 4
4 5 9 8
8 9 13 12
1 2 6 5
5 6 10 9
9 10 14 13
2 3 7 6
6 7 11 10
10 11 15 14

        </DataArray>
        <DataArray type="Int32" Name="offsets" format="ascii">
4 8 12 16 20 24 28 32 36 
        </DataArray>
        <DataArray type="UInt8" Name="types" format="ascii">
9 9 9 9 9 9 9 9 9 
        </DataArray>
      </Cells>
      <PointData>
        <DataArray type="Float64" Name="u">
          0.00000000e+00 2.91598684e+01 2.75047320e+01 3.33261653e+01 0.00000000e+00 4.63415892e+00 6.50916062e+00 1.11184787e+01 0.00000000e+00 -3.10867514e+00 -3.10171985e+00 -2.37759151e+00 0.00000000e+00 -5.47743596e+00 -7.57438134e+00 -1.02378454e+01 
        </DataArray>
        <DataArray type="Float64" Name="v">
          0.00000000e+00 -6.62371369e+00 -4.99639006e+00 -3.36284619e+00 0.00000000e+00 -1.13642818e+01 -7.10379925e+00 -2.98124063e+00 0.00000000e+00 -1.18251641e+01 -6.88471436e+00 -3.36368628e+00 0.00000000e+00 -1.00147884e+01 -6.90799150e+00 -3.89181166e+00 
        </DataArray>
        <DataArray type="Float64" Name="p">
          -2.81555059e+03 -2.68939112e+03 -2.56323164e+03 -2.43707217e+03 -2.72882840e+03 -2.64280401e+03 -2.55677962e+03 -2.47075524e+03 -2.64210620e+03 -2.59621690e+03 -2.55032760e+03 -2.50443830e+03 -2.55538401e+03 -2.54962980e+03 -2.54387558e+03 -2.53812137e+03 
        </DataArray>
      </PointData>
    </Piece>
    <Piece NumberOfPoints="16" NumberOfCells="9">
      <Points>
        <DataArray type="Float64" NumberOfComponents="3" format="ascii">
          3.00000000e+00 7.00000000e+00 0.00000000e+00 
4.00000000e+00 7.00000000e+00 0.00000000e+00 
5.00000000e+00 7.00000000e+00 0.00000000e+00 
6.00000000e+00 7.00000000e+00 0.00000000e+00 
3.00000000e+00 7.33333349e+00 0.00000000e+00 
4.00000000e+00 7.33333349e+00 0.00000000e+00 
5.00000000e+00 7.33333349e+00 0.00000000e+00 
6.00000000e+00 7.33333349e+00 0.00000000e+00 
3.00000000e+00 7.66666651e+00 0.00000000e+00 
4.00000000e+00 7.66666651e+00 0.00000000e+00 
5.00000000e+00 7.66666651e+00 0.00000000e+00 
6.00000000e+00 7.66666651e+00 0.00000000e+00 
3.00000000e+00 8.00000000e+00 0.00000000e+00 
4.00000000e+00 8.00000000e+00 0.00000000e+00 
5.00000000e+00 8.00000000e+00 0.00000000e+00 
6.00000000e+00 8.00000000e+00 0.00000000e+00 

        </DataArray>
      </Points>
      <Cells>
        <DataArray type="Int32" Name="connectivity" format="ascii">
0 1 5 4
4 5 9 8
8 9 13 12
1 2 6 5
5 6 10 9
9 10 14 13
2 3 7 6
6 7 11 10
10 11 15 14

        </DataArray>
        <DataArray type="Int32" Name="offsets" format="ascii">
4 8 12 16 20 24 28 32 36 
        </DataArray>
        <DataArray type="UInt8" Name="types" format="ascii">
9 9 9 9 9 9 9 9 9 
        </DataArray>
      </Cells>
      <PointData>
        <DataArray type="Float64" Name="u">
          0.00000000e+00 -5.47743596e+00 -7.57438134e+00 -1.02378454e+01 0.00000000e+00 -6.00307702e+00 -9.51296451e+00 -1.35758233e+01 0.00000000e+00 -5.60988799e+00 -9.55856606e+00 -1.41507567e+01 0.00000000e+00 -4.69303645e+00 -8.28960503e+00 -1.26740068e+01 
        </DataArray>
        <DataArray type="Float64" Name="v">
          0.00000000e+00 -1.00147884e+01 -6.90799150e+00 -3.89181166e+00 0.00000000e+00 -7.57516764e+00 -5.59611618e+00 -3.44166611e+00 0.00000000e+00 -5.55310192e+00 -4.28556338e+00 -2.73887994e+00 0.00000000e+00 -3.20843786e+00 -2.64002493e+00 -1.75089888e+00 
        </DataArray>
        <DataArray type="Float64" Name="p">
          -2.56165443e+03 -2.54356334e+03 -2.52547226e+03 -2.50738117e+03 -2.53830288e+03 -2.52353728e+03 -2.50877167e+03 -2.49400607e+03 -2.51495134e+03 -2.50351121e+03 -2.49207109e+03 -2.48063096e+03 -2.49159979e+03 -2.48348515e+03 -2.47537050e+03 -2.46725585e+03 
        </DataArray>
      </PointData>
    </Piece>
    <Piece NumberOfPoints="16" NumberOfCells="9">
      <Points>
        <DataArray type="Float64" NumberOfComponents="3" format="ascii">
          3.00000000e+00 8.00000000e+00 0.00000000e+00 
4.00000000e+00 8.00000000e+00 0.00000000e+00 
5.00000000e+00 8.00000000e+00 0.00000000e+00 
6.00000000e+00 8.00000000e+00 0.00000000e+00 
3.00000000e+00 8.33333302e+00 0.00000000e+00 
4.00000000e+00 8.33333302e+00 0.00000000e+00 
5.00000000e+00 8.33333302e+00 0.00000000e+00 
6.00000000e+00 8.33333302e+00 0.00000000e+00 
3.00000000e+00 8.66666698e+00 0.00000000e+00 
4.00000000e+00 8.66666698e+00 0.00000000e+00 
5.00000000e+00 8.66666698e+00 0.00000000e+00 
6.00000000e+00 8.66666698e+00 0.00000000e+00 
3.00000000e+00 9.00000000e+00 0.00000000e+00 
4.00000000e+00 9.00000000e+00 0.00000000e+00 
5.00000000e+00 9.00000000e+00 0.00000000e+00 
6.00000000e+00 9.00000000e+00 0.00000000e+00 

        </DataArray>
      </Points>
      <Cells>
        <DataArray type="Int32" Name="connectivity" format="ascii">
0 1 5 4
4 5 9 8
8 9 13 12
1 2 6 5
5 6 10 9
9 10 14 13
2 3 7 6
6 7 11 10
10 11 15 14

        </DataArray>
        <DataArray type="Int32" Name="offsets" format="ascii">
4 8 12 16 20 24 28 32 36 
        </DataArray>
        <DataArray type="UInt8" Name="types" format="ascii">
9 9 9 9 9 9 9 9 9 
        </DataArray>
      </Cells>
      <PointData>
        <DataArray type="Float64" Name="u">
          0.00000000e+00 -4.69303645e+00 -8.28960503e+00 -1.26740068e+01 0.00000000e+00 -3.42971742e+00 -6.09038799e+00 -9.68413636e+00 0.00000000e+00 -1.86174422e+00 -3.23909148e+00 -5.38748195e+00 0.00000000e+00 0.00000000e+00 0.00000000e+00 0.00000000e+00 
        </DataArray>
        <DataArray type="Float64" Name="v">
          0.00000000e+00 -3.20843786e+00 -2.64002493e+00 -1.75089888e+00 0.00000000e+00 -1.42783648e+00 -1.24589906e+00 -8.03129324e-01 0.00000000e+00 -4.52599464e-01 -4.26742003e-01 -2.65815990e-01 0.00000000e+00 0.00000000e+00 0.00000000e+00 0.00000000e+00 
        </DataArray>
        <DataArray type="Float64" Name="p">
          -2.49642696e+03 -2.48669229e+03 -2.47695761e+03 -2.46722293e+03 -2.50107447e+03 -2.49099979e+03 -2.48092511e+03 -2.47085043e+03 -2.50572198e+03 -2.49530730e+03 -2.48489262e+03 -2.47447794e+03 -2.51036949e+03 -2.49961480e+03 -2.48886012e+03 -2.47810544e+03 
        </DataArray>
      </PointData>
    </Piece>
    <Piece NumberOfPoints="16" NumberOfCells="9">
      <Points>
        <DataArray type="Float64" NumberOfComponents="3" format="ascii">
          6.00000000e+00 0.00000000e+00 0.00000000e+00 
7.00000000e+00 0.00000000e+00 0.00000000e+00 
8.00000000e+00 0.00000000e+00 0.00000000e+00 
9.00000000e+00 0.00000000e+00 0.00000000e+00 
6.00000000e+00 3.33333343e-01 0.00000000e+00 
7.00000000e+00 3.33333343e-01 0.00000000e+00 
8.00000000e+00 3.33333343e-01 0.00000000e+00 
9.00000000e+00 3.33333343e-01 0.00000000e+00 
6.00000000e+00 6.66666687e-01 0.00000000e+00 
7.00000000e+00 6.66666687e-01 0.00000000e+00 
8.00000000e+00 6.66666687e-01 0.00000000e+00 
9.00000000e+00 6.66666687e-01 0.00000000e+00 
6.00000000e+00 1.00000000e+00 0.00000000e+00 
7.00000000e+00 1.00000000e+00 0.00000000e+00 
8.00000000e+00 1.00000000e+00 0.00000000e+00 
9.00000000e+00 1.00000000e+00 0.00000000e+00 

        </DataArray>
      </Points>
      <Cells>
        <DataArray type="Int32" Name="connectivity" format="ascii">
0 1 5 4
4 5 9 8
8 9 13 12
1 2 6 5
5 6 10 9
9 10 14 13
2 3 7 6
6 7 11 10
10 11 15 14

        </DataArray>
        <DataArray type="Int32" Name="offsets" format="ascii">
4 8 12 16 20 24 28 32 36 
        </DataArray>
        <DataArray type="UInt8" Name="types" format="ascii">
9 9 9 9 9 9 9 9 9 
        </DataArray>
      </Cells>
      <PointData>
        <DataArray type="Float64" Name="u">