<?xml version="1.0"?>
<VTKFile type="UnstructuredGrid" version="0.1" byte_order="LittleEndian">
  <UnstructuredGrid>
    <Piece NumberOfPoints="16" NumberOfCells="9">
      <Points>
        <DataArray type="Float64" NumberOfComponents="3" format="ascii">
          0.00000000e+00 3.00000000e+00 0.00000000e+00 
1.00000000e+00 3.00000000e+00 0.00000000e+00 
2.00000000e+00 3.00000000e+00 0.00000000e+00 
3.00000000e+00 3.00000000e+00 0.00000000e+00 
0.00000000e+00 3.33333325e+00 0.00000000e+00 
1.00000000e+00 3.33333325e+00 0.00000000e+00 
2.00000000e+00 3.33333325e+00 0.00000000e+00 
3.00000000e+00 3.33333325e+00 0.00000000e+00 
0.00000000e+00 3.66666675e+00 0.00000000e+00 
1.00000000e+00 3.66666675e+00 0.00000000e+00 
2.00000000e+00 3.66666675e+00 0.00000000e+00 
3.00000000e+00 3.66666675e+00 0.00000000e+00 
0.00000000e+00 4.00000000e+00 0.00000000e+00 
1.00000000e+00 4.00000000e+00 0.00000000e+00 
2.00000000e+00 4.00000000e+00 0.00000000e+00 
3.00000000e+00 4.00000000e+00 0.00000000e+00 

        </DataArray>
      </Points>
      <Cells>
        <DataArray type="Int32" Name="connectivity" format="ascii">
0 1 5 4
4 5 9 8
8 9 13 12
1 2 6 5
5 6 10 9
9 10 14 13
2 3 7 6
6 7 11 10
10 11 15 14

        </DataArray>
        <DataArray type="Int32" Name="offsets" format="ascii">
4 8 12 16 20 24 28 32 36 
        </DataArray>
        <DataArray type="UInt8" Name="types" format="ascii">
9 9 9 9 9 9 9 9 9 
        </DataArray>
      </Cells>
      <PointData>
        <DataArray type="Float64" Name="u">
          0.00000000e+00 0.00000000e+00 0.00000000e+00 0.00000000e+00 8.88888889e+01 9.27875402e+01 9.12351472e+01 1.01540936e+02 1.55555556e+02 1.59012757e+02 1.58472790e+02 1.65276544e+02 2.00000000e+02 2.01955931e+02 2.02207999e+02 2.06120162e+02 
        </DataArray>
        <DataArray type="Float64" Name="v">
          0.00000000e+00 0.00000000e+00 0.00000000e+00 0.00000000e+00 0.00000000e+00 -1.01957414e+00 -1.51755394e+00 -4.08339389e+00 0.00000000e+00 -8.62566754e-01 -2.15405221e+00 -4.01858185e+00 0.00000000e+00 -2.13906238e+00 -3.85589351e+00 -6.42822210e+00 
        </DataArray>
        <DataArray type="Float64" Name="p">
          1.49887107e+03 2.91380131e+02 -9.16110810e+02 -2.12360175e+03 1.51464990e+03 3.28469244e+02 -8.57711415e+02 -2.04389207e+03 1.53042873e+03 3.65558357e+02 -7.99312020e+02 -1.96418240e+03 1.54620756e+03 4.02647470e+02 -7.40912624e+02 -1.88447272e+03 
        </DataArray>
      </PointData>
    </Piece>
    <Piece NumberOfPoints="16" NumberOfCells="9">
      <Points>
        <DataArray type="Float64" NumberOfComponents="3" format="ascii">
          0.00000000e+00 4.00000000e+00 0.00000000e+00 
1.00000000e+00 4.00000000e+00 0.00000000e+00 
2.00000000e+00 4.00000000e+00 0.00000000e+00 
3.00000000e+00 4.00000000e+00 0.00000000e+00 
0.00000000e+00 4.33333349e+00 0.00000000e+00 
1.00000000e+00 4.33333349e+00 0.00000000e+00 
2.00000000e+00 4.33333349e+00 0.00000000e+00 
3.00000000e+00 4.33333349e+00 0.00000000e+00 
0.00000000e+00 4.66666651e+00 0.00000000e+00 
1.00000000e+00 4.66666651e+00 0.00000000e+00 
2.00000000e+00 4.66666651e+00 0.00000000e+00 
3.00000000e+00 4.66666651e+00 0.00000000e+00 
0.00000000e+00 5.00000000e+00 0.00000000e+00 
1.00000000e+00 5.00000000e+00 0.00000000e+00 
2.00000000e+00 5.00000000e+00 0.00000000e+00 
3.00000000e+00 5.00000000e+00 0.00000000e+00 

        </DataArray>
      </Points>
      <Cells>
        <DataArray type="Int32" Name="connectivity" format="ascii">
0 1 5 4
4 5 9 8
8 9 13 12
1 2 6 5
5 6 10 9
9 10 14 13
2 3 7 6
6 7 11 10
10 11 15 14

        </DataArray>
        <DataArray type="Int32" Name="offsets" format="ascii">
4 8 12 16 20 24 28 32 36 
        </DataArray>
        <DataArray type="UInt8" Name="types" format="ascii">
9 9 9 9 9 9 9 9 9 
        </DataArray>
      </Cells>
      <PointData>
        <DataArray type="Float64" Name="u">
          2.00000000e+02 2.01955931e+02 2.02207999e+02 2.06120162e+02 2.22222222e+02 2.22719600e+02 2.22905394e+02 2.23899144e+02 2.22222222e+02 2.21116147e+02 2.21207992e+02 2.19278677e+02 2.00000000e+02 1.97509665e+02 1.97764850e+02 1.92890117e+02 
        </DataArray>
        <DataArray type="Float64" Name="v">
          0.00000000e+00 -2.13906238e+00 -3.85589351e+00 -6.42822210e+00 0.00000000e+00 -2.45330348e+00 -4.61819609e+00 -6.42784745e+00 0.00000000e+00 -2.48308014e+00 -4.51452745e+00 -6.60286793e+00 0.00000000e+00 -1.93502300e+00 -3.84979367e+00 -5.46210855e+00 
        </DataArray>
        <DataArray type="Float64" Name="p">
          1.57315458e+03 4.32947847e+02 -7.07258882e+02 -1.84746561e+03 1.75776614e+03 6.04543653e+02 -5.48678835e+02 -1.70190132e+03 1.94237770e+03 7.76139458e+02 -3.90098788e+02 -1.55633703e+03 2.12698927e+03 9.47735263e+02 -2.31518742e+02 -1.41077275e+03 
        </DataArray>
      </PointData>
    </Piece>
    <Piece NumberOfPoints="16" NumberOfCells="9">
      <Points>
        <DataArray type="Float64" NumberOfComponents="3" format="ascii">
          0.00000000e+00 5.00000000e+00 0.00000000e+00 
1.00000000e+00 5.00000000e+00 0.00000000e+00 
2.00000000e+00 5.00000000e+00 0.00000000e+00 
3.00000000e+00 5.00000000e+00 0.00000000e+00 
0.00000000e+00 5.33333349e+00 0.00000000e+00 
1.00000000e+00 5.33333349e+00 0.00000000e+00 
2.00000000e+00 5.33333349e+00 0.00000000e+00 
3.00000000e+00 5.33333349e+00 0.00000000e+00 
0.00000000e+00 5.66666651e+00 0.00000000e+00 
1.00000000e+00 5.66666651e+00 0.00000000e+00 
2.00000000e+00 5.66666651e+00 0.00000000e+00 
3.00000000e+00 5.66666651e+00 0.00000000e+00 
0.00000000e+00 6.00000000e+00 0.00000000e+00 
1.00000000e+00 6.00000000e+00 0.00000000e+00 
2.00000000e+00 6.00000000e+00 0.00000000e+00 
3.00000000e+00 6.00000000e+00 0.00000000e+00 

        </DataArray>
      </Points>
      <Cells>
        <DataArray type="Int32" Name="connectivity" format="ascii">
0 1 5 4
4 5 9 8
8 9 13 12
1 2 6 5
5 6 10 9
9 10 14 13
2 3 7 6
6 7 11 10
10 11 15 14

        </DataArray>
        <DataArray type="Int32" Name="offsets" format="ascii">
4 8 12 16 20 24 28 32 36 
        </DataArray>
        <DataArray type="UInt8" Name="types" format="ascii">
9 9 9 9 9 9 9 9 9 
        </DataArray>
      </Cells>
      <PointData>
        <DataArray type="Float64" Name="u">
          2.00000000e+02 1.97509665e+02 1.97764850e+02 1.92890117e+02 1.55555556e+02 1.52255852e+02 1.52861951e+02 1.45810492e+02 8.88888889e+01 8.58507244e+01 8.66151433e+01 7.81873548e+01 0.00000000e+00 0.00000000e+00 0.00000000e+00 0.00000000e+00 
        </DataArray>
        <DataArray type="Float64" Name="v">
          0.00000000e+00 -1.93502300e+00 -3.84979367e+00 -5.46210855e+00 0.00000000e+00 -7.79116127e-01 -2.03376192e+00 -3.40103388e+00 0.00000000e+00 -7.76186389e-01 -1.76801370e+00 -1.79217147e+00 0.00000000e+00 0.00000000e+00 0.00000000e+00 0.00000000e+00 
        </DataArray>
        <DataArray type="Float64" Name="p">
          2.13587963e+03 9.71762984e+02 -1.92353666e+02 -1.35647032e+03 2.16858195e+03 1.01093691e+03 -1.46708130e+02 -1.30435317e+03 2.20128426e+03 1.05011083e+03 -1.01062594e+02 -1.25223602e+03 2.23398657e+03 1.08928476e+03 -5.54170583e+01 -1.20011887e+03 
        </DataArray>
      </PointData>
    </Piece>
    <Piece NumberOfPoints="16" NumberOfCells="9">
      <Points>
        <DataArray type="Float64" NumberOfComponents="3" format="ascii">
          3.00000000e+00 0.00000000e+00 0.00000000e+00 
4.00000000e+00 0.00000000e+00 0.00000000e+00 
5.00000000e+00 0.00000000e+00 0.00000000e+00 
6.00000000e+00 0.00000000e+00 0.00000000e+00 
3.00000000e+00 3.33333343e-01 0.00000000e+00 
4.00000000e+00 3.33333343e-01 0.00000000e+00 
5.00000000e+00 3.33333343e-01 0.00000000e+00 
6.00000000e+00 3.33333343e-01 0.00000000e+00 
3.00000000e+00 6.66666687e-01 0.00000000e+00 
4.00000000e+00 6.66666687e-01 0.00000000e+00 
5.00000000e+00 6.66666687e-01 0.00000000e+00 
6.00000000e+00 6.66666687e-01 0.00000000e+00 
3.00000000e+00 1.00000000e+00 0.00000000e+00 
4.00000000e+00 1.00000000e+00 0.00000000e+00 
5.00000000e+00 1.00000000e+00 0.00000000e+00 
6.00000000e+00 1.00000000e+00 0.00000000e+00 

        </DataArray>
      </Points>
      <Cells>
        <DataArray type="Int32" Name="connectivity" format="ascii">
0 1 5 4
4 5 9 8
8 9 13 12
1 2 6 5
5 6 10 9
9 10 14 13
2 3 7 6
6 7 11 10
10 11 15 14

        </DataArray>
        <DataArray type="Int32" Name="offsets" format="ascii">
4 8 12 16 20 24 28 32 36 
        </DataArray>
        <DataArray type="UInt8" Name="types" format="ascii">
9 9 9 9 9 9 9 9 9 
        </DataArray>
      </Cells>
      <PointData>
        <DataArray type="Float64" Name="u">
          0.00000000e+00 0.00000000e+00 0.00000000e+00 0.00000000e+00 0.00000000e+00 -4.01881723e+00 -6.56747211e+00 -1.19351350e+01 0.00000000e+00 -6.90491364e+00 -1.15868406e+01 -2.05385303e+01 0.00000000e+00 -8.59298347e+00 -1.42689992e+01 -2.36681220e+01 
        </DataArray>
        <DataArray type="Float64" Name="v">
          0.00000000e+00 0.00000000e+00 0.00000000e+00 0.00000000e+00 0.00000000e+00 9.65017052e-01 1.02674052e+00 8.04733855e-01 0.00000000e+00 2.83659765e+00 2.86417979e+00 1.88392947e+00 0.00000000e+00 6.09778528e+00 6.15042470e+00 3.61840930e+00 
        </DataArray>
        <DataArray type="Float64" Name="p">
          -2.59624113e+03 -2.53565110e+03 -2.47506107e+03 -2.41447104e+03 -2.58466931e+03 -2.52455545e+03 -2.46444159e+03 -2.40432773e+03 -2.57309748e+03 -2.51345979e+03 -2.45382210e+03 -2.39418441e+03 -2.56152565e+03 -2.50236414e+03 -2.44320262e+03 -2.38404110e+03 
        </DataArray>
      </PointData>
    </Piece>
    <Piece NumberOfPoints="16" NumberOfCells="9">
      <Points>
        <DataArray type="Float64" NumberOfComponents="3" format="ascii">
          3.00000000e+00 1.00000000e+00 0.00000000e+00 
4.00000000e+00 1.00000000e+00 0.00000000e+00 
5.00000000e+00 1.00000000e+00 0.00000000e+00 
6.00000000e+00 1.00000000e+00 0.00000000e+00 
3.00000000e+00 1.33333337e+00 0.00000000e+00 
4.00000000e+00 1.33333337e+00 0.00000000e+00 
5.00000000e+00 1.33333337e+00 0.00000000e+00 
6.00000000e+00 1.33333337e+00 0.00000000e+00 
3.00000000e+00 1.66666663e+00 0.00000000e+00 
4.00000000e+00 1.66666663e+00 0.00000000e+00 
5.00000000e+00 1.66666663e+00 0.00000000e+00 
6.00000000e+00 1.66666663e+00 0.00000000e+00 
3.00000000e+00 2.00000000e+00 0.00000000e+00 
4.00000000e+00 2.00000000e+00 0.00000000e+00 
5.00000000e+00 2.00000000e+00 0.00000000e+00 
6.00000000e+00 2.00000000e+00 0.00000000e+00 

        </DataArray>
      </Points>
      <Cells>
        <DataArray type="Int32" Name="connectivity" format="ascii">
0 1 5 4
4 5 9 8
8 9 13 12
1 2 6 5
5 6 10 9
9 10 14 13
2 3 7 6
6 7 11 10
10 11 15 14

        </DataArray>
        <DataArray type="Int32" Name="offsets" format="ascii">
4 8 12 16 20 24 28 32 36 
        </DataArray>
        <DataArray type="UInt8" Name="types" format="ascii">
9 9 9 9 9 9 9 9 9 
        </DataArray>
      </Cells>
      <PointData>
        <DataArray type="Float64" Name="u">
          0.00000000e+00 -8.59298347e+00 -1.42689992e+01 -2.36681220e+01 0.00000000e+00 -9.00536435e+00 -1.39019366e+01 -2.08481795e+01 0.00000000e+00 -8.01668125e+00 -1.01603457e+01 -1.18147563e+01 0.00000000e+00 -5.11460655e+00 -2.51607013e+00 3.75134516e+00 
        </DataArray>
        <DataArray type="Float64" Name="v">
          0.00000000e+00 6.09778528e+00 6.15042470e+00 3.61840930e+00 0.00000000e+00 9.82034841e+00 9.14657373e+00 4.55707419e+00 0.00000000e+00 1.26193619e+01 1.08962815e+01 4.18662292e+00 0.00000000e+00 1.50633104e+01 1.09486234e+01 1.62909935e+00 
        </DataArray>
        <DataArray type="Float64" Name="p">
          -2.55095802e+03 -2.50224658e+03 -2.45353515e+03 -2.40482371e+03 -2.59109097e+03 -2.55458609e+03 -2.51808121e+03 -2.48157633e+03 -2.63122392e+03 -2.60692560e+03 -2.58262728e+03 -2.55832896e+03 -2.67135686e+03 -2.65926510e+03 -2.64717334e+03 -2.63508159e+03 
        </DataArray>
      </PointData>
    </Piece>
    <Piece NumberOfPoints="16" NumberOfCells="9">
      <Points>
        <DataArray type="Float64" NumberOfComponents="3" format="ascii">
          3.00000000e+00 2.00000000e+00 0.00000000e+00 
4.00000000e+00 2.00000000e+00 0.00000000e+00 
5.00000000e+00 2.00000000e+00 0.00000000e+00 
6.00000000e+00 2.00000000e+00 0.00000000e+00 
3.00000000e+00 2.33333325e+00 0.00000000e+00 
4.00000000e+00 2.33333325e+00 0.00000000e+00 
5.00000000e+00 2.33333325e+00 0.00000000e+00 
6.00000000e+00 2.33333325e+00 0.00000000e+00 
3.00000000e+00 2.66666675e+00 0.00000000e+00 
4.00000000e+00 2.66666675e+00 0.00000000e+00 
5.00000000e+00 2.66666675e+00 0.00000000e+00 
6.00000000e+00 2.66666675e+00 0.00000000e+00 
3.00000000e+00 3.00000000e+00 0.00000000e+00 
4.00000000e+00 3.00000000e+00 0.00000000e+00 
5.00000000e+00 3.00000000e+00 0.00000000e+00 
6.00000000e+00 3.00000000e+00 0.00000000e+00 

        </DataArray>
      </Points>
      <Cells>
        <DataArray type="Int32" Name="connectivity" format="ascii">
0 1 5 4
4 5 9 8
8 9 13 12
1 2 6 5
5 6 10 9
9 10 14 13
2 3 7 6
6 7 11 10
10 11 15 14

        </DataArray>
        <DataArray type="Int32" Name="offsets" format="ascii">
4 8 12 16 20 24 28 32 36 
        </DataArray>
        <DataArray type="UInt8" Name="types" format="ascii">
9 9 9 9 9 9 9 9 9 
        </DataArray>
      </Cells>
      <PointData>
        <DataArray type="Float64" Name="u">
          0.00000000e+00 -5.11460655e+00 -2.51607013e+00 3.75134516e+00 0.00000000e+00 1.07324889e+00 9.63568731e+00 2.74299479e+01 0.00000000e+00 1.72493983e+01 3.21377962e+01 5.84281261e+01 0.00000000e+00 5.79533434e+01 7.27443680e+01 9.98602856e+01 
        </DataArray>
        <DataArray type="Float64" Name="v">
          0.00000000e+00 1.50633104e+01 1.09486234e+01 1.62909935e+00 0.00000000e+00 1.57238380e+01 6.98620462e+00 -4.47722718e+00 0.00000000e+00 1.12343968e+01 2.22717685e+00 -8.98016640e+00 0.00000000e+00 -1.54717873e+00 -7.52715745e+00 -1.35073750e+01 
        </DataArray>
        <DataArray type="Float64" Name="p">
          -2.63475646e+03 -2.66866055e+03 -2.70256463e+03 -2.73646872e+03 -2.84859690e+03 -2.75362930e+03 -2.65866170e+03 -2.56369409e+03 -3.06243734e+03 -2.83859805e+03 -2.61475876e+03 -2.39091947e+03 -3.27627778e+03 -2.92356680e+03 -2.57085582e+03 -2.21814484e+03 
        </DataArray>
      </PointData>
    </Piece>
    <Piece NumberOfPoints="16" NumberOfCells="9">
      <Points>
        <DataArray type="Float64" NumberOfComponents="3" format="ascii">
          3.00000000e+00 3.00000000e+00 0.00000000e+00 
4.00000000e+00 3.00000000e+00 0.00000000e+00 
5.00000000e+00 3.00000000e+00 0.00000000e+00 
6.00000000e+00 3.00000000e+00 0.00000000e+00 
3.00000000e+00 3.33333325e+00 0.00000000e+00 
4.00000000e+00 3.33333325e+00 0.00000000e+00 
5.00000000e+00 3.33333325e+00 0.00000000e+00 
6.00000000e+00 3.33333325e+00 0.00000000e+00 
3.00000000e+00 3.66666675e+00 0.00000000e+00 
4.00000000e+00 3.66666675e+00 0.00000000e+00 
5.00000000e+00 3.66666675e+00 0.00000000e+00 
6.00000000e+00 3.66666675e+00 0.00000000e+00 
3.00000000e+00 4.00000000e+00 0.00000000e+00 
4.00000000e+00 4.00000000e+00 0.00000000e+00 
5.00000000e+00 4.00000000e+00 0.00000000e+00 
6.00000000e+00 4.00000000e+00 0.00000000e+00 

        </DataArray>
      </Points>
      <Cells>
        <DataArray type="Int32" Name="connectivity" format="ascii">
0 1 5 4
4 5 9 8
8 9 13 12
1 2 6 5
5 6 10 9
9 10 14 13
2 3 7 6
6 7 11 10
10 11 15 14

        </DataArray>
        <DataArray type="Int32" Name="offsets" format="ascii">
4 8 12 16 20 24 28 32 36 
        </DataArray>
        <DataArray type="UInt8" Name="types" format="ascii">
9 9 9 9 9 9 9 9 9 
        </DataArray>
      </Cells>
      <PointData>
        <DataArray type="Float64" Name="u">
          0.00000000e+00 5.79533434e+01 7.27443680e+01 9.98602856e+01 1.01540936e+02 1.12166105e+02 1.26601745e+02 1.41018358e+02 1.65276544e+02 1.66076949e+02 1.73645145e+02 1.78622710e+02 2.06120162e+02 2.01593217e+02 2.05027489e+02 2.01269785e+02 
        </DataArray>
        <DataArray type="Float64" Name="v">
          0.00000000e+00 -1.54717873e+00 -7.52715745e+00 -1.35073750e+01 -4.08339389e+00 -1.30376798e+01 -1.57296677e+01 -1.63205310e+01 -4.01858185e+00 -1.32363539e+01 -1.73644340e+01 -1.84603360e+01 -6.42822210e+00 -1.39859597e+01 -1.83255382e+01 -2.18612255e+01 
        </DataArray>
        <DataArray type="Float64" Name="p">
          -3.43125038e+03 -2.99634924e+03 -2.56144811e+03 -2.12654697e+03 -2.87657615e+03 -2.64991280e+03 -2.42324944e+03 -2.19658609e+03 -2.32190192e+03 -2.30347635e+03 -2.28505078e+03 -2.26662521e+03 -1.76722769e+03 -1.95703990e+03 -2.14685212e+03 -2.33666433e+03 
        </DataArray>
      </PointData>
    </Piece>
    <Piece NumberOfPoints="16" NumberOfCells="9">
      <Points>
        <DataArray type="Float64" NumberOfComponents="3" format="ascii">
          3.00000000e+00 4.00000000e+00 0.00000000e+00 
4.00000000e+00 4.00000000e+00 0.00000000e+00 
5.00000000e+00 4.00000000e+00 0.00000000e+00 
6.00000000e+00 4.00000000e+00 0.00000000e+00 
3.00000000e+00 4.33333349e+00 0.00000000e+00 
4.00000000e+00 4.33333349e+00 0.00000000e+00 
5.00000000e+00 4.33333349e+00 0.00000000e+00 
6.00000000e+00 4.33333349e+00 0.00000000e+00 
3.00000000e+00 4.66666651e+00 0.00000000e+00 
4.00000000e+00 4.66666651e+00 0.00000000e+00 
5.00000000e+00 4.66666651e+00 0.00000000e+00 
6.00000000e+00 4.66666651e+00 0.00000000e+00 
3.00000000e+00 5.00000000e+00 0.00000000e+00 
4.00000000e+00 5.00000000e+00 0.00000000e+00 
5.00000000e+00 5.00000000e+00 0.00000000e+00 
6.00000000e+00 5.00000000e+00 0.00000000e+00 

        </DataArray>
      </Points>
      <Cells>
        <DataArray type="Int32" Name="connectivity" format="ascii">
0 1 5 4
4 5 9 8
8 9 13 12
1 2 6 5
5 6 10 9
9 10 14 13
2 3 7 6
6 7 11 10
10 11 15 14

        </DataArray>
        <DataArray type="Int32" Name="offsets" format="ascii">
4 8 12 16 20 24 28 32 36 
        </DataArray>
        <DataArray type="UInt8" Name="types" format="ascii">
9 9 9 9 9 9 9 9 9 
        </DataArray>
      </Cells>
      <PointData>
        <DataArray type="Float64" Name="u">
          2.06120162e+02 2.01593217e+02 2.05027489e+02 2.01269785e+02 2.23899144e+02 2.16829581e+02 2.14909966e+02 2.06184228e+02 2.19278677e+02 2.09934928e+02 2.04335674e+02 1.91246431e+02 1.92890117e+02 1.82733643e+02 1.74952121e+02 1.59972910e+02 
        </DataArray>
        <DataArray type="Float64" Name="v">
          -6.42822210e+00 -1.39859597e+01 -1.83255382e+01 -2.18612255e+01 -6.42784745e+00 -1.11358475e+01 -1.63464783e+01 -2.11992554e+01 -6.60286793e+00 -1.04913167e+01 -1.41763183e+01 -1.88332448e+01 -5.46210855e+00 -5.77307837e+00 -9.70834899e+00 -1.49811942e+01 
        </DataArray>
        <DataArray type="Float64" Name="p">
          -1.59872935e+03 -1.83049778e+03 -2.06226622e+03 -2.29403465e+03 -1.28783844e+03 -1.48907480e+03 -1.69031116e+03 -1.89154751e+03 -9.76947537e+02 -1.14765181e+03 -1.31835609e+03 -1.48906037e+03 -6.66056631e+02 -8.06228830e+02 -9.46401029e+02 -1.08657323e+03 
        </DataArray>
      </PointData>
    </Piece>
    <Piece NumberOfPoints="16" NumberOfCells="9">
      <Points>
        <DataArray type="Float64" NumberOfComponents="3" format="ascii">
          3.00000000e+00 5.00000000e+00 0.00000000e+00 
4.00000000e+00 5.00000000e+00 0.00000000e+00 
5.00000000e+00 5.00000000e+00 0.00000000e+00 
6.00000000e+00 5.00000000e+00 0.00000000e+00 
3.00000000e+00 5.33333349e+00 0.00000000e+00 
4.00000000e+00 5.33333349e+00 0.00000000e+00 
5.00000000e+00 5.33333349e+00 0.00000000e+00 
6.00000000e+00 5.33333349e+00 0.00000000e+00 
3.00000000e+00 5.66666651e+00 0.00000000e+00 
4.00000000e+00 5.66666651e+00 0.00000000e+00 
5.00000000e+00 5.66666651e+00 0.00000000e+00 
6.00000000e+00 5.66666651e+00 0.00000000e+00 
3.00000000e+00 6.00000000e+00 0.00000000e+00 
4.00000000e+00 6.00000000e+00 0.00000000e+00 
5.00000000e+00 6.00000000e+00 0.00000000e+00 
6.00000000e+00 6.00000000e+00 0.00000000e+00 

        </DataArray>
      </Points>
      <Cells>
        <DataArray type="Int32" Name="connectivity" format="ascii">
0 1 5 4
4 5 9 8
8 9 13 12
1 2 6 5
5 6 10 9
9 10 14 13
2 3 7 6
6 7 11 10
10 11 15 14

        </DataArray>
        <DataArray type="Int32" Name="offsets" format="ascii">
4 8 12 16 20 24 28 32 36 
        </DataArray>
        <DataArray type="UInt8" Name="types" format="ascii">
9 9 9 9 9 9 9 9 9 
        </DataArray>
      </Cells>
      <PointData>
        <DataArray type="Float64" Name="u">
          1.92890117e+02 1.82733643e+02 1.74952121e+02 1.59972910e+02 1.45810492e+02 1.36669720e+02 1.29347626e+02 1.17253823e+02 7.81873548e+01 8.03139436e+01 7.75874701e+01 7.40201803e+01 0.00000000e+00 3.58028162e+01 3.52603656e+01 4.32248628e+01 
        </DataArray>
        <DataArray type="Float64" Name="v">
          -5.46210855e+00 -5.77307837e+00 -9.70834899e+00 -1.49811942e+01 -3.40103388e+00 -1.49156833e+00 -4.28072980e+00 -9.95635076e+00 -1.79217147e+00 -1.51191235e+00 -5.06311939e+00 -7.96739500e+00 0.00000000e+00 -6.54904450e+00 -4.90794430e+00 -3.22865988e+00 
        </DataArray>
        <DataArray type="Float64" Name="p">
          -7.55576489e+02 -8.11946806e+02 -8.68317123e+02 -9.24687440e+02 -9.20137072e+02 -8.47402699e+02 -7.74668327e+02 -7.01933954e+02 -1.08469765e+03 -8.82858592e+02 -6.81019530e+02 -4.79180469e+02 -1.24925824e+03 -9.18314486e+02 -5.87370734e+02 -2.56426983e+02 
        </DataArray>
      </PointData>
    </Piece>
    <Piece NumberOfPoints="16" NumberOfCells="9">
      <Points>
        <DataArray type="Float64" NumberOfComponents="3" format="ascii">
          3.00000000e+00 6.00000000e+00 0.00000000e+00 
4.00000000e+00 6.00000000e+00 0.00000000e+00 
5.00000000e+00 6.00000000e+00 0.00000000e+00 
6.00000000e+00 6.00000000e+00 0.00000000e+00 
3.00000000e+00 6.33333349e+00 0.00000000e+00 
4.00000000e+00 6.33333349e+00 0.00000000e+00 
5.00000000e+00 6.33333349e+00 0.00000000e+00 
6.00000000e+00 6.33333349e+00 0.00000000e+00 
3.00000000e+00 6.66666651e+00 0.00000000e+00 
4.00000000e+00 6.66666651e+00 0.00000000e+00 
5.00000000e+00 6.66666651e+00 0.00000000e+00 
6.00000000e+00 6.66666651e+00 0.00000000e+00 
3.00000000e+00 7.00000000e+00 0.00000000e+00 
4.00000000e+00 7.00000000e+00 0.00000000e+00 
5.00000000e+00 7.00000000e+00 0.00000000e+00 
6.00000000e+00 7.00000000e+00 0.00000000e+00 

        </DataArray>
      </Points>
      <Cells>
        <DataArray type="Int32" Name="connectivity" format="ascii">
0 1 5 4
4 5 9 8
8 9 13 12
1 2 6 5
5 6 10 9
9 10 14 13
2 3 7 6
6 7 11 10
10 11 15 14

        </DataArray>
        <DataArray type="Int32" Name="offsets" format="ascii">
4 8 12 16 20 24 28 32 36 
        </DataArray>
        <DataArray type="UInt8" Name="types" format="ascii">
9 9 9 9 9 9 9 9 9 
        </DataArray>
      </Cells>
      <PointData>
        <DataArray type="Float64" Name="u">
          0.00000000e+00 3.58028162e+01 3.52603656e+01 4.32248628e+01 0.00000000e+00 7.87819850e+00 1.11969077e+01 1.76050651e+01 0.00000000e+00 -2.54558053e+00 -1.30706707e+00 7.10607749e-01 0.00000000e+00 -6.22813988e+00 -7.65127315e+00 -1.00983144e+01 
        </DataArray>
        <DataArray type="Float64" Name="v">
          0.00000000e+00 -6.54904450e+00 -4.90794430e+00 -3.22865988e+00 0.00000000e+00 -1.30009804e+01 -7.77838228e+00 -2.67136300e+00 0.00000000e+00 -1.42950916e+01 -8.13010170e+00 -3.16704913e+00 0.00000000e+00 -1.25009887e+01 -8.44722395e+00 -4.11284407e+00 
        </DataArray>
        <DataArray type="Float64" Name="p">
          -1.22232150e+03 -9.66723199e+02 -7.11124902e+02 -4.55526605e+02 -1.06580286e+03 -8.85761117e+02 -7.05719373e+02 -5.25677629e+02 -9.09284226e+02 -8.04799035e+02 -7.00313844e+02 -5.95828653e+02 -7.52765590e+02 -7.23836952e+02 -6.94908314e+02 -6.65979677e+02 
        </DataArray>
      </PointData>
    </Piece>
    <Piece NumberOfPoints="16" NumberOfCells="9">
      <Points>
        <DataArray type="Float64" NumberOfComponents="3" format="ascii">
          3.00000000e+00 7.00000000e+00 0.00000000e+00 
4.00000000e+00 7.00000000e+00 0.00000000e+00 
5.00000000e+00 7.00000000e+00 0.00000000e+00 
6.00000000e+00 7.00000000e+00 0.00000000e+00 
3.00000000e+00 7.33333349e+00 0.00000000e+00 
4.00000000e+00 7.33333349e+00 0.00000000e+00 
5.00000000e+00 7.33333349e+00 0.00000000e+00 
6.00000000e+00 7.33333349e+00 0.00000000e+00 
3.00000000e+00 7.66666651e+00 0.00000000e+00 
4.00000000e+00 7.66666651e+00 0.00000000e+00 
5.00000000e+00 7.66666651e+00 0.00000000e+00 
6.00000000e+00 7.66666651e+00 0.00000000e+00 
3.00000000e+00 8.00000000e+00 0.00000000e+00 
4.00000000e+00 8.00000000e+00 0.00000000e+00 
5.00000000e+00 8.00000000e+00 0.00000000e+00 
6.00000000e+00 8.00000000e+00 0.00000000e+00 

        </DataArray>
      </Points>
      <Cells>
        <DataArray type="Int32" Name="connectivity" format="ascii">
0 1 5 4
4 5 9 8
8 9 13 12
1 2 6 5
5 6 10 9
9 10 14 13
2 3 7 6
6 7 11 10
10 11 15 14

        </DataArray>
        <DataArray type="Int32" Name="offsets" format="ascii">
4 8 12 16 20 24 28 32 36 
        </DataArray>
        <DataArray type="UInt8" Name="types" format="ascii">
9 9 9 9 9 9 9 9 9 
        </DataArray>
      </Cells>
      <PointData>
        <DataArray type="Float64" Name="u">
          0.00000000e+00 -6.22813988e+00 -7.65127315e+00 -1.00983144e+01 0.00000000e+00 -7.42260009e+00 -1.08365418e+01 -1.54841664e+01 0.00000000e+00 -7.28000152e+00 -1.15562630e+01 -1.72525314e+01 0.00000000e+00 -6.32620367e+00 -1.04457624e+01 -1.61473506e+01 
        </DataArray>
        <DataArray type="Float64" Name="v">
          0.00000000e+00 -1.25009887e+01 -8.44722395e+00 -4.11284407e+00 0.00000000e+00 -9.73139080e+00 -7.08346405e+00 -3.88941525e+00 0.00000000e+00 -7.25177580e+00 -5.50890729e+00 -3.19991191e+00 0.00000000e+00 -4.29871311e+00 -3.48753309e+00 -2.11349066e+00 
        </DataArray>
        <DataArray type="Float64" Name="p">
          -7.65784527e+02 -7.15080987e+02 -6.64377447e+02 -6.13673906e+02 -7.21164732e+02 -6.78075174e+02 -6.34985616e+02 -5.91896058e+02 -6.76544938e+02 -6.41069361e+02 -6.05593785e+02 -5.70118209e+02 -6.31925143e+02 -6.04063549e+02 -5.76201955e+02 -5.48340360e+02 
        </DataArray>
      </PointData>
    </Piece>
    <Piece NumberOfPoints="16" NumberOfCells="9">
      <Points>
        <DataArray type="Float64" NumberOfComponents="3" format="ascii">
          3.00000000e+00 8.00000000e+00 0.00000000e+00 
4.00000000e+00 8.00000000e+00 0.00000000e+00 
5.00000000e+00 8.00000000e+00 0.00000000e+00 
6.00000000e+00 8.00000000e+00 0.00000000e+00 
3.00000000e+00 8.33333302e+00 0.00000000e+00 
4.00000000e+00 8.33333302e+00 0.00000000e+00 
5.00000000e+00 8.33333302e+00 0.00000000e+00 
6.00000000e+00 8.33333302e+00 0.00000000e+00 
3.00000000e+00 8.66666698e+00 0.00000000e+00 
4.00000000e+00 8.66666698e+00 0.00000000e+00 
5.00000000e+00 8.66666698e+00 0.00000000e+00 
6.00000000e+00 8.66666698e+00 0.00000000e+00 
3.00000000e+00 9.00000000e+00 0.00000000e+00 
4.00000000e+00 9.00000000e+00 0.00000000e+00 
5.00000000e+00 9.00000000e+00 0.00000000e+00 
6.00000000e+00 9.00000000e+00 0.00000000e+00 

        </DataArray>
      </Points>
      <Cells>
        <DataArray type="Int32" Name="connectivity" format="ascii">
0 1 5 4
4 5 9 8
8 9 13 12
1 2 6 5
5 6 10 9
9 10 14 13
2 3 7 6
6 7 11 10
10 11 15 14

        </DataArray>
        <DataArray type="Int32" Name="offsets" format="ascii">
4 8 12 16 20 24 28 32 36 
        </DataArray>
        <DataArray type="UInt8" Name="types" format="ascii">
9 9 9 9 9 9 9 9 9 
        </DataArray>
      </Cells>
      <PointData>
        <DataArray type="Float64" Name="u">
          0.00000000e+00 -6.32620367e+00 -1.04457624e+01 -1.61473506e+01 0.00000000e+00 -4.79033936e+00 -7.93557584e+00 -1.27658886e+01 0.00000000e+00 -2.69471475e+00 -4.34125180e+00 -7.32389049e+00 0.00000000e+00 0.00000000e+00 0.00000000e+00 0.00000000e+00 
        </DataArray>
        <DataArray type="Float64" Name="v">
          0.00000000e+00 -4.29871311e+00 -3.48753309e+00 -2.11349066e+00 0.00000000e+00 -1.94767259e+00 -1.67682179e+00 -9.79788814e-01 0.00000000e+00 -6.34747481e-01 -5.89868873e-01 -3.28669585e-01 0.00000000e+00 0.00000000e+00 0.00000000e+00 0.00000000e+00 
        </DataArray>
        <DataArray type="Float64" Name="p">
          -6.39670433e+02 -6.08466890e+02 -5.77263348e+02 -5.46059805e+02 -6.48730210e+02 -6.16683041e+02 -5.84635871e+02 -5.52588702e+02 -6.57789987e+02 -6.24899191e+02 -5.92008395e+02 -5.59117599e+02 -6.66849764e+02 -6.33115342e+02 -5.99380919e+02 -5.65646496e+02 
        </DataArray>
      </PointData>
    </Piece>
    <Piece NumberOfPoints="16" NumberOfCells="9">
      <Points>
        <DataArray type="Float64" NumberOfComponents="3" format="ascii">
          6.00000000e+00 0.00000000e+00 0.00000000e+00 
7.00000000e+00 0.00000000e+00 0.00000000e+00 
8.00000000e+00 0.00000000e+00 0.00000000e+00 
9.00000000e+00 0.00000000e+00 0.00000000e+00 
6.00000000e+00 3.33333343e-01 0.00000000e+00 
7.00000000e+00 3.33333343e-01 0.00000000e+00 
8.00000000e+00 3.33333343e-01 0.00000000e+00 
9.00000000e+00 3.33333343e-01 0.00000000e+00 
6.00000000e+00 6.66666687e-01 0.00000000e+00 
7.00000000e+00 6.66666687e-01 0.00000000e+00 
8.00000000e+00 6.66666687e-01 0.00000000e+00 
9.00000000e+00 6.66666687e-01 0.00000000e+00 
6.00000000e+00 1.00000000e+00 0.00000000e+00 
7.00000000e+00 1.00000000e+00 0.00000000e+00 
8.00000000e+00 1.00000000e+00 0.00000000e+00 
9.00000000e+00 1.00000000e+00 0.00000000e+00 

        </DataArray>
      </Points>
      <Cells>
        <DataArray type="Int32" Name="connectivity" format="ascii">
0 1 5 4
4 5 9 8
8 9 13 12
1 2 6 5
5 6 10 9
9 10 14 13
2 3 7 6
6 7 11 10
10 11 15 14

        </DataArray>
        <DataArray type="Int32" Name="offsets" format="ascii">
4 8 12 16 20 24 28 32 36 
        </DataArray>
        <DataArray type="UInt8" Name="types" format="ascii">
9 9 9 9 9 9 9 9 9 
        </DataArray>
      </Cells>
      <PointData>
        <DataArray type="Float64" Name="u">