<?xml version="1.0"?>
<VTKFile type="UnstructuredGrid" version="0.1" byte_order="LittleEndian">
  <UnstructuredGrid>
    <Piece NumberOfPoints="16" NumberOfCells="9">
      <Points>
        <DataArray type="Float64" NumberOfComponents="3" format="ascii">
          0.00000000e+00 3.00000000e+00 0.00000000e+00 
1.00000000e+00 3.00000000e+00 0.00000000e+00 
2.00000000e+00 3.00000000e+00 0.00000000e+00 
3.00000000e+00 3.00000000e+00 0.00000000e+00 
0.00000000e+00 3.33333325e+00 0.00000000e+00 
1.00000000e+00 3.33333325e+00 0.00000000e+00 
2.00000000e+00 3.33333325e+00 0.00000000e+00 
3.00000000e+00 3.33333325e+00 0.00000000e+00 
0.00000000e+00 3.66666675e+00 0.00000000e+00 
1.00000000e+00 3.66666675e+00 0.00000000e+00 
2.00000000e+00 3.66666675e+00 0.00000000e+00 
3.00000000e+00 3.66666675e+00 0.00000000e+00 
0.00000000e+00 4.00000000e+00 0.00000000e+00 
1.00000000e+00 4.00000000e+00 0.00000000e+00 
2.00000000e+00 4.00000000e+00 0.00000000e+00 
3.00000000e+00 4.00000000e+00 0.00000000e+00 

        </DataArray>
      </Points>
      <Cells>
        <DataArray type="Int32" Name="connectivity" format="ascii">
0 1 5 4
4 5 9 8
8 9 13 12
1 2 6 5
5 6 10 9
9 10 14 13
2 3 7 6
6 7 11 10
10 11 15 14

        </DataArray>
        <DataArray type="Int32" Name="offsets" format="ascii">
4 8 12 16 20 24 28 32 36 
        </DataArray>
        <DataArray type="UInt8" Name="types" format="ascii">
9 9 9 9 9 9 9 9 9 
        </DataArray>
      </Cells>
      <PointData>
        <DataArray type="Float64" Name="u">
          0.00000000e+00 0.00000000e+00 0.00000000e+00 0.00000000e+00 8.88888889e+01 9.14311233e+01 9.05420413e+01 9.77573500e+01 1.55555556e+02 1.57791107e+02 1.57747477e+02 1.62408043e+02 2.00000000e+02 2.01020963e+02 2.01722681e+02 2.03821591e+02 
        </DataArray>
        <DataArray type="Float64" Name="v">
          0.00000000e+00 0.00000000e+00 0.00000000e+00 0.00000000e+00 0.00000000e+00 -6.43994583e-01 -8.66464416e-01 -3.39227073e+00 0.00000000e+00 -6.36329091e-01 -1.46471981e+00 -3.13524117e+00 0.00000000e+00 -1.45493090e+00 -2.62521290e+00 -4.75438069e+00 
        </DataArray>
        <DataArray type="Float64" Name="p">
          4.35926983e+03 2.76056451e+03 1.16185919e+03 -4.36846135e+02 4.35860805e+03 2.78238278e+03 1.20615752e+03 -3.70067749e+02 4.35794627e+03 2.80420106e+03 1.25045585e+03 -3.03289364e+02 4.35728450e+03 2.82601934e+03 1.29475418e+03 -2.36510979e+02 
        </DataArray>
      </PointData>
    </Piece>
    <Piece NumberOfPoints="16" NumberOfCells="9">
      <Points>
        <DataArray type="Float64" NumberOfComponents="3" format="ascii">
          0.00000000e+00 4.00000000e+00 0.00000000e+00 
1.00000000e+00 4.00000000e+00 0.00000000e+00 
2.00000000e+00 4.00000000e+00 0.00000000e+00 
3.00000000e+00 4.00000000e+00 0.00000000e+00 
0.00000000e+00 4.33333349e+00 0.00000000e+00 
1.00000000e+00 4.33333349e+00 0.00000000e+00 
2.00000000e+00 4.33333349e+00 0.00000000e+00 
3.00000000e+00 4.33333349e+00 0.00000000e+00 
0.00000000e+00 4.66666651e+00 0.00000000e+00 
1.00000000e+00 4.66666651e+00 0.00000000e+00 
2.00000000e+00 4.66666651e+00 0.00000000e+00 
3.00000000e+00 4.66666651e+00 0.00000000e+00 
0.00000000e+00 5.00000000e+00 0.00000000e+00 
1.00000000e+00 5.00000000e+00 0.00000000e+00 
2.00000000e+00 5.00000000e+00 0.00000000e+00 
3.00000000e+00 5.00000000e+00 0.00000000e+00 

        </DataArray>
      </Points>
      <Cells>
        <DataArray type="Int32" Name="connectivity" format="ascii">
0 1 5 4
4 5 9 8
8 9 13 12
1 2 6 5
5 6 10 9
9 10 14 13
2 3 7 6
6 7 11 10
10 11 15 14

        </DataArray>
        <DataArray type="Int32" Name="offsets" format="ascii">
4 8 12 16 20 24 28 32 36 
        </DataArray>
        <DataArray type="UInt8" Name="types" format="ascii">
9 9 9 9 9 9 9 9 9 
        </DataArray>
      </Cells>
      <PointData>
        <DataArray type="Float64" Name="u">
          2.00000000e+02 2.01020963e+02 2.01722681e+02 2.03821591e+02 2.22222222e+02 2.22111790e+02 2.22753816e+02 2.22935871e+02 2.22222222e+02 2.20998352e+02 2.21577863e+02 2.19700490e+02 2.00000000e+02 1.97920048e+02 1.98645987e+02 1.94675259e+02 
        </DataArray>
        <DataArray type="Float64" Name="v">
          0.00000000e+00 -1.45493090e+00 -2.62521290e+00 -4.75438069e+00 0.00000000e+00 -1.60042238e+00 -3.13659248e+00 -4.49191134e+00 0.00000000e+00 -1.61409739e+00 -2.99600321e+00 -4.71656429e+00 0.00000000e+00 -1.15881273e+00 -2.53790700e+00 -3.59551928e+00 
        </DataArray>
        <DataArray type="Float64" Name="p">
          4.38071852e+03 2.85190529e+03 1.32309207e+03 -2.05721163e+02 4.49481687e+03 2.96821235e+03 1.44160782e+03 -8.49967027e+01 4.60891522e+03 3.08451940e+03 1.56012358e+03 3.57277579e+01 4.72301357e+03 3.20082645e+03 1.67863933e+03 1.56452219e+02 
        </DataArray>
      </PointData>
    </Piece>
    <Piece NumberOfPoints="16" NumberOfCells="9">
      <Points>
        <DataArray type="Float64" NumberOfComponents="3" format="ascii">
          0.00000000e+00 5.00000000e+00 0.00000000e+00 
1.00000000e+00 5.00000000e+00 0.00000000e+00 
2.00000000e+00 5.00000000e+00 0.00000000e+00 
3.00000000e+00 5.00000000e+00 0.00000000e+00 
0.00000000e+00 5.33333349e+00 0.00000000e+00 
1.00000000e+00 5.33333349e+00 0.00000000e+00 
2.00000000e+00 5.33333349e+00 0.00000000e+00 
3.00000000e+00 5.33333349e+00 0.00000000e+00 
0.00000000e+00 5.66666651e+00 0.00000000e+00 
1.00000000e+00 5.66666651e+00 0.00000000e+00 
2.00000000e+00 5.66666651e+00 0.00000000e+00 
3.00000000e+00 5.66666651e+00 0.00000000e+00 
0.00000000e+00 6.00000000e+00 0.00000000e+00 
1.00000000e+00 6.00000000e+00 0.00000000e+00 
2.00000000e+00 6.00000000e+00 0.00000000e+00 
3.00000000e+00 6.00000000e+00 0.00000000e+00 

        </DataArray>
      </Points>
      <Cells>
        <DataArray type="Int32" Name="connectivity" format="ascii">
0 1 5 4
4 5 9 8
8 9 13 12
1 2 6 5
5 6 10 9
9 10 14 13
2 3 7 6
6 7 11 10
10 11 15 14

        </DataArray>
        <DataArray type="Int32" Name="offsets" format="ascii">
4 8 12 16 20 24 28 32 36 
        </DataArray>
        <DataArray type="UInt8" Name="types" format="ascii">
9 9 9 9 9 9 9 9 9 
        </DataArray>
      </Cells>
      <PointData>
        <DataArray type="Float64" Name="u">
          2.00000000e+02 1.97920048e+02 1.98645987e+02 1.94675259e+02 1.55555556e+02 1.53284296e+02 1.54026436e+02 1.48924852e+02 8.88888889e+01 8.71834510e+01 8.76791281e+01 8.26088277e+01 0.00000000e+00 0.00000000e+00 0.00000000e+00 0.00000000e+00 
        </DataArray>
        <DataArray type="Float64" Name="v">
          0.00000000e+00 -1.15881273e+00 -2.53790700e+00 -3.59551928e+00 0.00000000e+00 -4.50997219e-01 -1.36788177e+00 -2.09104843e+00 0.00000000e+00 -3.75818361e-01 -1.14769034e+00 -5.51481822e-01 0.00000000e+00 0.00000000e+00 0.00000000e+00 0.00000000e+00 
        </DataArray>
        <DataArray type="Float64" Name="p">
          4.72234346e+03 3.21445837e+03 1.70657328e+03 1.98688189e+02 4.74633629e+03 3.24040156e+03 1.73446683e+03 2.28532106e+02 4.77032912e+03 3.26634475e+03 1.76236039e+03 2.58376024e+02 4.79432195e+03 3.29228795e+03 1.79025394e+03 2.88219941e+02 
        </DataArray>
      </PointData>
    </Piece>
    <Piece NumberOfPoints="16" NumberOfCells="9">
      <Points>
        <DataArray type="Float64" NumberOfComponents="3" format="ascii">
          3.00000000e+00 0.00000000e+00 0.00000000e+00 
4.00000000e+00 0.00000000e+00 0.00000000e+00 
5.00000000e+00 0.00000000e+00 0.00000000e+00 
6.00000000e+00 0.00000000e+00 0.00000000e+00 
3.00000000e+00 3.33333343e-01 0.00000000e+00 
4.00000000e+00 3.33333343e-01 0.00000000e+00 
5.00000000e+00 3.33333343e-01 0.00000000e+00 
6.00000000e+00 3.33333343e-01 0.00000000e+00 
3.00000000e+00 6.66666687e-01 0.00000000e+00 
4.00000000e+00 6.66666687e-01 0.00000000e+00 
5.00000000e+00 6.66666687e-01 0.00000000e+00 
6.00000000e+00 6.66666687e-01 0.00000000e+00 
3.00000000e+00 1.00000000e+00 0.00000000e+00 
4.00000000e+00 1.00000000e+00 0.00000000e+00 
5.00000000e+00 1.00000000e+00 0.00000000e+00 
6.00000000e+00 1.00000000e+00 0.00000000e+00 

        </DataArray>
      </Points>
      <Cells>
        <DataArray type="Int32" Name="connectivity" format="ascii">
0 1 5 4
4 5 9 8
8 9 13 12
1 2 6 5
5 6 10 9
9 10 14 13
2 3 7 6
6 7 11 10
10 11 15 14

        </DataArray>
        <DataArray type="Int32" Name="offsets" format="ascii">
4 8 12 16 20 24 28 32 36 
        </DataArray>
        <DataArray type="UInt8" Name="types" format="ascii">
9 9 9 9 9 9 9 9 9 
        </DataArray>
      </Cells>
      <PointData>
        <DataArray type="Float64" Name="u">
          0.00000000e+00 0.00000000e+00 0.00000000e+00 0.00000000e+00 0.00000000e+00 -4.67816522e+00 -6.89160645e+00 -1.26047152e+01 0.00000000e+00 -7.85838013e+00 -1.18951407e+01 -2.07312787e+01 0.00000000e+00 -9.65397850e+00 -1.43269761e+01 -2.33987765e+01 
        </DataArray>
        <DataArray type="Float64" Name="v">
          0.00000000e+00 0.00000000e+00 0.00000000e+00 0.00000000e+00 0.00000000e+00 1.06712223e+00 1.10177418e+00 7.16131411e-01 0.00000000e+00 3.09474554e+00 2.94283055e+00 1.67251848e+00 0.00000000e+00 6.59693288e+00 6.03595857e+00 3.23691171e+00 
        </DataArray>
        <DataArray type="Float64" Name="p">
          -6.34964430e+02 -5.24617996e+02 -4.14271562e+02 -3.03925128e+02 -6.17561218e+02 -5.09666941e+02 -4.01772663e+02 -2.93878386e+02 -6.00158006e+02 -4.94715885e+02 -3.89273765e+02 -2.83831644e+02 -5.82754793e+02 -4.79764830e+02 -3.76774866e+02 -2.73784902e+02 
        </DataArray>
      </PointData>
    </Piece>
    <Piece NumberOfPoints="16" NumberOfCells="9">
      <Points>
        <DataArray type="Float64" NumberOfComponents="3" format="ascii">
          3.00000000e+00 1.00000000e+00 0.00000000e+00 
4.00000000e+00 1.00000000e+00 0.00000000e+00 
5.00000000e+00 1.00000000e+00 0.00000000e+00 
6.00000000e+00 1.00000000e+00 0.00000000e+00 
3.00000000e+00 1.33333337e+00 0.00000000e+00 
4.00000000e+00 1.33333337e+00 0.00000000e+00 
5.00000000e+00 1.33333337e+00 0.00000000e+00 
6.00000000e+00 1.33333337e+00 0.00000000e+00 
3.00000000e+00 1.66666663e+00 0.00000000e+00 
4.00000000e+00 1.66666663e+00 0.00000000e+00 
5.00000000e+00 1.66666663e+00 0.00000000e+00 
6.00000000e+00 1.66666663e+00 0.00000000e+00 
3.00000000e+00 2.00000000e+00 0.00000000e+00 
4.00000000e+00 2.00000000e+00 0.00000000e+00 
5.00000000e+00 2.00000000e+00 0.00000000e+00 
6.00000000e+00 2.00000000e+00 0.00000000e+00 

        </DataArray>
      </Points>
      <Cells>
        <DataArray type="Int32" Name="connectivity" format="ascii">
0 1 5 4
4 5 9 8
8 9 13 12
1 2 6 5
5 6 10 9
9 10 14 13
2 3 7 6
6 7 11 10
10 11 15 14

        </DataArray>
        <DataArray type="Int32" Name="offsets" format="ascii">
4 8 12 16 20 24 28 32 36 
        </DataArray>
        <DataArray type="UInt8" Name="types" format="ascii">
9 9 9 9 9 9 9 9 9 
        </DataArray>
      </Cells>
      <PointData>
        <DataArray type="Float64" Name="u">
          0.00000000e+00 -9.65397850e+00 -1.43269761e+01 -2.33987765e+01 0.00000000e+00 -1.00881627e+01 -1.36811864e+01 -2.04523680e+01 0.00000000e+00 -8.98026252e+00 -9.65581112e+00 -1.15690528e+01 0.00000000e+00 -5.69469746e+00 -1.71421454e+00 3.56576664e+00 
        </DataArray>
        <DataArray type="Float64" Name="v">
          0.00000000e+00 6.59693288e+00 6.03595857e+00 3.23691171e+00 0.00000000e+00 1.05173025e+01 8.83215421e+00 3.90077662e+00 0.00000000e+00 1.34272380e+01 1.04171420e+01 3.31640521e+00 0.00000000e+00 1.59091347e+01 1.04330900e+01 7.41335963e-01 
        </DataArray>
        <DataArray type="Float64" Name="p">
          -5.71505883e+02 -4.79726632e+02 -3.87947382e+02 -2.96168132e+02 -6.39618710e+02 -5.50348086e+02 -4.61077461e+02 -3.71806837e+02 -7.07731538e+02 -6.20969539e+02 -5.34207541e+02 -4.47445542e+02 -7.75844365e+02 -6.91590993e+02 -6.07337620e+02 -5.23084247e+02 
        </DataArray>
      </PointData>
    </Piece>
    <Piece NumberOfPoints="16" NumberOfCells="9">
      <Points>
        <DataArray type="Float64" NumberOfComponents="3" format="ascii">
          3.00000000e+00 2.00000000e+00 0.00000000e+00 
4.00000000e+00 2.00000000e+00 0.00000000e+00 
5.00000000e+00 2.00000000e+00 0.00000000e+00 
6.00000000e+00 2.00000000e+00 0.00000000e+00 
3.00000000e+00 2.33333325e+00 0.00000000e+00 
4.00000000e+00 2.33333325e+00 0.00000000e+00 
5.00000000e+00 2.33333325e+00 0.00000000e+00 
6.00000000e+00 2.33333325e+00 0.00000000e+00 
3.00000000e+00 2.66666675e+00 0.00000000e+00 
4.00000000e+00 2.66666675e+00 0.00000000e+00 
5.00000000e+00 2.66666675e+00 0.00000000e+00 
6.00000000e+00 2.66666675e+00 0.00000000e+00 
3.00000000e+00 3.00000000e+00 0.00000000e+00 
4.00000000e+00 3.00000000e+00 0.00000000e+00 
5.00000000e+00 3.00000000e+00 0.00000000e+00 
6.00000000e+00 3.00000000e+00 0.00000000e+00 

        </DataArray>
      </Points>
      <Cells>
        <DataArray type="Int32" Name="connectivity" format="ascii">
0 1 5 4
4 5 9 8
8 9 13 12
1 2 6 5
5 6 10 9
9 10 14 13
2 3 7 6
6 7 11 10
10 11 15 14

        </DataArray>
        <DataArray type="Int32" Name="offsets" format="ascii">
4 8 12 16 20 24 28 32 36 
        </DataArray>
        <DataArray type="UInt8" Name="types" format="ascii">
9 9 9 9 9 9 9 9 9 
        </DataArray>
      </Cells>
      <PointData>
        <DataArray type="Float64" Name="u">
          0.00000000e+00 -5.69469746e+00 -1.71421454e+00 3.56576664e+00 0.00000000e+00 1.30075992e+00 1.08251771e+01 2.63241155e+01 0.00000000e+00 1.82120491e+01 3.27529905e+01 5.56229755e+01 0.00000000e+00 5.70900225e+01 6.95472983e+01 9.35138340e+01 
        </DataArray>
        <DataArray type="Float64" Name="v">
          0.00000000e+00 1.59091347e+01 1.04330900e+01 7.41335963e-01 0.00000000e+00 1.64099072e+01 6.79282645e+00 -4.59835351e+00 0.00000000e+00 1.15870147e+01 2.21393257e+00 -8.42813165e+00 0.00000000e+00 -1.20463100e+00 -6.47979931e+00 -1.14856567e+01 
        </DataArray>
        <DataArray type="Float64" Name="p">
          -7.33920977e+02 -7.01941643e+02 -6.69962310e+02 -6.37982976e+02 -1.01579837e+03 -8.23585108e+02 -6.31371847e+02 -4.39158585e+02 -1.29767576e+03 -9.45228573e+02 -5.92781383e+02 -2.40334193e+02 -1.57955316e+03 -1.06687204e+03 -5.54190920e+02 -4.15098013e+01 
        </DataArray>
      </PointData>
    </Piece>
    <Piece NumberOfPoints="16" NumberOfCells="9">
      <Points>
        <DataArray type="Float64" NumberOfComponents="3" format="ascii">
          3.00000000e+00 3.00000000e+00 0.00000000e+00 
4.00000000e+00 3.00000000e+00 0.00000000e+00 
5.00000000e+00 3.00000000e+00 0.00000000e+00 
6.00000000e+00 3.00000000e+00 0.00000000e+00 
3.00000000e+00 3.33333325e+00 0.00000000e+00 
4.00000000e+00 3.33333325e+00 0.00000000e+00 
5.00000000e+00 3.33333325e+00 0.00000000e+00 
6.00000000e+00 3.33333325e+00 0.00000000e+00 
3.00000000e+00 3.66666675e+00 0.00000000e+00 
4.00000000e+00 3.66666675e+00 0.00000000e+00 
5.00000000e+00 3.66666675e+00 0.00000000e+00 
6.00000000e+00 3.66666675e+00 0.00000000e+00 
3.00000000e+00 4.00000000e+00 0.00000000e+00 
4.00000000e+00 4.00000000e+00 0.00000000e+00 
5.00000000e+00 4.00000000e+00 0.00000000e+00 
6.00000000e+00 4.00000000e+00 0.00000000e+00 

        </DataArray>
      </Points>
      <Cells>
        <DataArray type="Int32" Name="connectivity" format="ascii">
0 1 5 4
4 5 9 8
8 9 13 12
1 2 6 5
5 6 10 9
9 10 14 13
2 3 7 6
6 7 11 10
10 11 15 14

        </DataArray>
        <DataArray type="Int32" Name="offsets" format="ascii">
4 8 12 16 20 24 28 32 36 
        </DataArray>
        <DataArray type="UInt8" Name="types" format="ascii">
9 9 9 9 9 9 9 9 9 
        </DataArray>
      </Cells>
      <PointData>
        <DataArray type="Float64" Name="u">
          0.00000000e+00 5.70900225e+01 6.95472983e+01 9.35138340e+01 9.77573500e+01 1.07533264e+02 1.19653254e+02 1.30860845e+02 1.62408043e+02 1.60561488e+02 1.66049079e+02 1.67884701e+02 2.03821591e+02 1.97229377e+02 1.98782631e+02 1.92713453e+02 
        </DataArray>
        <DataArray type="Float64" Name="v">
          0.00000000e+00 -1.20463100e+00 -6.47979931e+00 -1.14856567e+01 -3.39227073e+00 -1.18645825e+01 -1.31628071e+01 -1.25377812e+01 -3.13524117e+00 -1.24995058e+01 -1.51621723e+01 -1.41945994e+01 -4.75438069e+00 -1.18261202e+01 -1.47083013e+01 -1.62300206e+01 
        </DataArray>
        <DataArray type="Float64" Name="p">
          -1.70665650e+03 -1.10296976e+03 -4.99283019e+02 1.04403720e+02 -1.11421325e+03 -7.63762310e+02 -4.13311370e+02 -6.28604303e+01 -5.21770002e+02 -4.24554862e+02 -3.27339721e+02 -2.30124580e+02 7.06732450e+01 -8.53474134e+01 -2.41368072e+02 -3.97388730e+02 
        </DataArray>
      </PointData>
    </Piece>
    <Piece NumberOfPoints="16" NumberOfCells="9">
      <Points>
        <DataArray type="Float64" NumberOfComponents="3" format="ascii">
          3.00000000e+00 4.00000000e+00 0.00000000e+00 
4.00000000e+00 4.00000000e+00 0.00000000e+00 
5.00000000e+00 4.00000000e+00 0.00000000e+00 
6.00000000e+00 4.00000000e+00 0.00000000e+00 
3.00000000e+00 4.33333349e+00 0.00000000e+00 
4.00000000e+00 4.33333349e+00 0.00000000e+00 
5.00000000e+00 4.33333349e+00 0.00000000e+00 
6.00000000e+00 4.33333349e+00 0.00000000e+00 
3.00000000e+00 4.66666651e+00 0.00000000e+00 
4.00000000e+00 4.66666651e+00 0.00000000e+00 
5.00000000e+00 4.66666651e+00 0.00000000e+00 
6.00000000e+00 4.66666651e+00 0.00000000e+00 
3.00000000e+00 5.00000000e+00 0.00000000e+00 
4.00000000e+00 5.00000000e+00 0.00000000e+00 
5.00000000e+00 5.00000000e+00 0.00000000e+00 
6.00000000e+00 5.00000000e+00 0.00000000e+00 

        </DataArray>
      </Points>
      <Cells>
        <DataArray type="Int32" Name="connectivity" format="ascii">
0 1 5 4
4 5 9 8
8 9 13 12
1 2 6 5
5 6 10 9
9 10 14 13
2 3 7 6
6 7 11 10
10 11 15 14

        </DataArray>
        <DataArray type="Int32" Name="offsets" format="ascii">
4 8 12 16 20 24 28 32 36 
        </DataArray>
        <DataArray type="UInt8" Name="types" format="ascii">
9 9 9 9 9 9 9 9 9 
        </DataArray>
      </Cells>
      <PointData>
        <DataArray type="Float64" Name="u">
          2.03821591e+02 1.97229377e+02 1.98782631e+02 1.92713453e+02 2.22935871e+02 2.13904580e+02 2.11289945e+02 2.01399176e+02 2.19700490e+02 2.09224551e+02 2.03991149e+02 1.91314984e+02 1.94675259e+02 1.84268846e+02 1.78053694e+02 1.64778992e+02 
        </DataArray>
        <DataArray type="Float64" Name="v">
          -4.75438069e+00 -1.18261202e+01 -1.47083013e+01 -1.62300206e+01 -4.49191134e+00 -8.24846096e+00 -1.22844091e+01 -1.56198042e+01 -4.71656429e+00 -7.06051459e+00 -9.47414538e+00 -1.31567131e+01 -3.59551928e+00 -2.24078108e+00 -5.43129588e+00 -1.03855802e+01 
        </DataArray>
        <DataArray type="Float64" Name="p">
          2.74722746e+02 4.19997384e+01 -1.90723270e+02 -4.23446278e+02 4.98086154e+02 2.91196627e+02 8.43070998e+01 -1.22582427e+02 7.21449561e+02 5.40393515e+02 3.59337469e+02 1.78281423e+02 9.44812968e+02 7.89590404e+02 6.34367839e+02 4.79145274e+02 
        </DataArray>
      </PointData>
    </Piece>
    <Piece NumberOfPoints="16" NumberOfCells="9">
      <Points>
        <DataArray type="Float64" NumberOfComponents="3" format="ascii">
          3.00000000e+00 5.00000000e+00 0.00000000e+00 
4.00000000e+00 5.00000000e+00 0.00000000e+00 
5.00000000e+00 5.00000000e+00 0.00000000e+00 
6.00000000e+00 5.00000000e+00 0.00000000e+00 
3.00000000e+00 5.33333349e+00 0.00000000e+00 
4.00000000e+00 5.33333349e+00 0.00000000e+00 
5.00000000e+00 5.33333349e+00 0.00000000e+00 
6.00000000e+00 5.33333349e+00 0.00000000e+00 
3.00000000e+00 5.66666651e+00 0.00000000e+00 
4.00000000e+00 5.66666651e+00 0.00000000e+00 
5.00000000e+00 5.66666651e+00 0.00000000e+00 
6.00000000e+00 5.66666651e+00 0.00000000e+00 
3.00000000e+00 6.00000000e+00 0.00000000e+00 
4.00000000e+00 6.00000000e+00 0.00000000e+00 
5.00000000e+00 6.00000000e+00 0.00000000e+00 
6.00000000e+00 6.00000000e+00 0.00000000e+00 

        </DataArray>
      </Points>
      <Cells>
        <DataArray type="Int32" Name="connectivity" format="ascii">
0 1 5 4
4 5 9 8
8 9 13 12
1 2 6 5
5 6 10 9
9 10 14 13
2 3 7 6
6 7 11 10
10 11 15 14

        </DataArray>
        <DataArray type="Int32" Name="offsets" format="ascii">
4 8 12 16 20 24 28 32 36 
        </DataArray>
        <DataArray type="UInt8" Name="types" format="ascii">
9 9 9 9 9 9 9 9 9 
        </DataArray>
      </Cells>
      <PointData>
        <DataArray type="Float64" Name="u">
          1.94675259e+02 1.84268846e+02 1.78053694e+02 1.64778992e+02 1.48924852e+02 1.40902288e+02 1.36008322e+02 1.26873207e+02 8.26088277e+01 8.68571346e+01 8.70060477e+01 8.63833240e+01 0.00000000e+00 4.21581536e+01 4.37734124e+01 5.46450547e+01 
        </DataArray>
        <DataArray type="Float64" Name="v">
          -3.59551928e+00 -2.24078108e+00 -5.43129588e+00 -1.03855802e+01 -2.09104843e+00 1.52405891e+00 -1.03283466e+00 -6.96852164e+00 -5.51481822e-01 1.26794109e+00 -2.02656145e+00 -5.33874721e+00 0.00000000e+00 -5.19088812e+00 -3.29591512e+00 -1.50936843e+00 
        </DataArray>
        <DataArray type="Float64" Name="p">
          8.07692752e+02 7.53982508e+02 7.00272264e+02 6.46562020e+02 5.20301820e+02 6.50644377e+02 7.80986934e+02 9.11329491e+02 2.32910889e+02 5.47306247e+02 8.61701604e+02 1.17609696e+03 -5.44800426e+01 4.43968116e+02 9.42416275e+02 1.44086443e+03 
        </DataArray>
      </PointData>
    </Piece>
    <Piece NumberOfPoints="16" NumberOfCells="9">
      <Points>
        <DataArray type="Float64" NumberOfComponents="3" format="ascii">
          3.00000000e+00 6.00000000e+00 0.00000000e+00 
4.00000000e+00 6.00000000e+00 0.00000000e+00 
5.00000000e+00 6.00000000e+00 0.00000000e+00 
6.00000000e+00 6.00000000e+00 0.00000000e+00 
3.00000000e+00 6.33333349e+00 0.00000000e+00 
4.00000000e+00 6.33333349e+00 0.00000000e+00 
5.00000000e+00 6.33333349e+00 0.00000000e+00 
6.00000000e+00 6.33333349e+00 0.00000000e+00 
3.00000000e+00 6.66666651e+00 0.00000000e+00 
4.00000000e+00 6.66666651e+00 0.00000000e+00 
5.00000000e+00 6.66666651e+00 0.00000000e+00 
6.00000000e+00 6.66666651e+00 0.00000000e+00 
3.00000000e+00 7.00000000e+00 0.00000000e+00 
4.00000000e+00 7.00000000e+00 0.00000000e+00 
5.00000000e+00 7.00000000e+00 0.00000000e+00 
6.00000000e+00 7.00000000e+00 0.00000000e+00 

        </DataArray>
      </Points>
      <Cells>
        <DataArray type="Int32" Name="connectivity" format="ascii">
0 1 5 4
4 5 9 8
8 9 13 12
1 2 6 5
5 6 10 9
9 10 14 13
2 3 7 6
6 7 11 10
10 11 15 14

        </DataArray>
        <DataArray type="Int32" Name="offsets" format="ascii">
4 8 12 16 20 24 28 32 36 
        </DataArray>
        <DataArray type="UInt8" Name="types" format="ascii">
9 9 9 9 9 9 9 9 9 
        </DataArray>
      </Cells>
      <PointData>
        <DataArray type="Float64" Name="u">
          0.00000000e+00 4.21581536e+01 4.37734124e+01 5.46450547e+01 0.00000000e+00 1.12807008e+01 1.68892746e+01 2.59889140e+01 0.00000000e+00 -1.50400983e+00 1.67504192e+00 5.83172367e+00 0.00000000e+00 -6.49304772e+00 -6.58976056e+00 -8.02081103e+00 
        </DataArray>
        <DataArray type="Float64" Name="v">
          0.00000000e+00 -5.19088812e+00 -3.29591512e+00 -1.50936843e+00 0.00000000e+00 -1.34649830e+01 -7.21261775e+00 -1.15614859e+00 0.00000000e+00 -1.57802595e+01 -8.42526835e+00 -2.04625661e+00 0.00000000e+00 -1.42597354e+01 -9.30388636e+00 -3.64096514e+00 
        </DataArray>
        <DataArray type="Float64" Name="p">
          -1.91173739e+01 3.94312832e+02 8.07743037e+02 1.22117324e+03 2.13345226e+02 5.10631529e+02 8.07917833e+02 1.10520414e+03 4.45807826e+02 6.26950227e+02 8.08092628e+02 9.89235029e+02 6.78270425e+02 7.43268924e+02 8.08267423e+02 8.73265922e+02 
        </DataArray>
      </PointData>
    </Piece>
    <Piece NumberOfPoints="16" NumberOfCells="9">
      <Points>
        <DataArray type="Float64" NumberOfComponents="3" format="ascii">
          3.00000000e+00 7.00000000e+00 0.00000000e+00 
4.00000000e+00 7.00000000e+00 0.00000000e+00 
5.00000000e+00 7.00000000e+00 0.00000000e+00 
6.00000000e+00 7.00000000e+00 0.00000000e+00 
3.00000000e+00 7.33333349e+00 0.00000000e+00 
4.00000000e+00 7.33333349e+00 0.00000000e+00 
5.00000000e+00 7.33333349e+00 0.00000000e+00 
6.00000000e+00 7.33333349e+00 0.00000000e+00 
3.00000000e+00 7.66666651e+00 0.00000000e+00 
4.00000000e+00 7.66666651e+00 0.00000000e+00 
5.00000000e+00 7.66666651e+00 0.00000000e+00 
6.00000000e+00 7.66666651e+00 0.00000000e+00 
3.00000000e+00 8.00000000e+00 0.00000000e+00 
4.00000000e+00 8.00000000e+00 0.00000000e+00 
5.00000000e+00 8.00000000e+00 0.00000000e+00 
6.00000000e+00 8.00000000e+00 0.00000000e+00 

        </DataArray>
      </Points>
      <Cells>
        <DataArray type="Int32" Name="connectivity" format="ascii">
0 1 5 4
4 5 9 8
8 9 13 12
1 2 6 5
5 6 10 9
9 10 14 13
2 3 7 6
6 7 11 10
10 11 15 14

        </DataArray>
        <DataArray type="Int32" Name="offsets" format="ascii">
4 8 12 16 20 24 28 32 36 
        </DataArray>
        <DataArray type="UInt8" Name="types" format="ascii">
9 9 9 9 9 9 9 9 9 
        </DataArray>
      </Cells>
      <PointData>
        <DataArray type="Float64" Name="u">
          0.00000000e+00 -6.49304772e+00 -6.58976056e+00 -8.02081103e+00 0.00000000e+00 -8.41748507e+00 -1.11533366e+01 -1.57414884e+01 0.00000000e+00 -8.62273782e+00 -1.27437878e+01 -1.90767599e+01 0.00000000e+00 -7.73695167e+00 -1.20171167e+01 -1.87351344e+01 
        </DataArray>
        <DataArray type="Float64" Name="v">
          0.00000000e+00 -1.42597354e+01 -9.30388636e+00 -3.64096514e+00 0.00000000e+00 -1.13952576e+01 -8.12659316e+00 -3.87538730e+00 0.00000000e+00 -8.63215212e+00 -6.45734422e+00 -3.37762815e+00 0.00000000e+00 -5.22481092e+00 -4.19492738e+00 -2.33571863e+00 
        </DataArray>
        <DataArray type="Float64" Name="p">
          6.57255829e+02 7.54052252e+02 8.50848675e+02 9.47645098e+02 7.26048476e+02 8.10221643e+02 8.94394809e+02 9.78567976e+02 7.94841123e+02 8.66391033e+02 9.37940944e+02 1.00949085e+03 8.63633769e+02 9.22560424e+02 9.81487078e+02 1.04041373e+03 
        </DataArray>
      </PointData>
    </Piece>
    <Piece NumberOfPoints="16" NumberOfCells="9">
      <Points>
        <DataArray type="Float64" NumberOfComponents="3" format="ascii">
          3.00000000e+00 8.00000000e+00 0.00000000e+00 
4.00000000e+00 8.00000000e+00 0.00000000e+00 
5.00000000e+00 8.00000000e+00 0.00000000e+00 
6.00000000e+00 8.00000000e+00 0.00000000e+00 
3.00000000e+00 8.33333302e+00 0.00000000e+00 
4.00000000e+00 8.33333302e+00 0.00000000e+00 
5.00000000e+00 8.33333302e+00 0.00000000e+00 
6.00000000e+00 8.33333302e+00 0.00000000e+00 
3.00000000e+00 8.66666698e+00 0.00000000e+00 
4.00000000e+00 8.66666698e+00 0.00000000e+00 
5.00000000e+00 8.66666698e+00 0.00000000e+00 
6.00000000e+00 8.66666698e+00 0.00000000e+00 
3.00000000e+00 9.00000000e+00 0.00000000e+00 
4.00000000e+00 9.00000000e+00 0.00000000e+00 
5.00000000e+00 9.00000000e+00 0.00000000e+00 
6.00000000e+00 9.00000000e+00 0.00000000e+00 

        </DataArray>
      </Points>
      <Cells>
        <DataArray type="Int32" Name="connectivity" format="ascii">
0 1 5 4
4 5 9 8
8 9 13 12
1 2 6 5
5 6 10 9
9 10 14 13
2 3 7 6
6 7 11 10
10 11 15 14

        </DataArray>
        <DataArray type="Int32" Name="offsets" format="ascii">
4 8 12 16 20 24 28 32 36 
        </DataArray>
        <DataArray type="UInt8" Name="types" format="ascii">
9 9 9 9 9 9 9 9 9 
        </DataArray>
      </Cells>
      <PointData>
        <DataArray type="Float64" Name="u">
          0.00000000e+00 -7.73695167e+00 -1.20171167e+01 -1.87351344e+01 0.00000000e+00 -6.02460983e+00 -9.41710266e+00 -1.53199359e+01 0.00000000e+00 -3.47890339e+00 -5.27753491e+00 -9.02995282e+00 0.00000000e+00 0.00000000e+00 0.00000000e+00 0.00000000e+00 
        </DataArray>
        <DataArray type="Float64" Name="v">
          0.00000000e+00 -5.22481092e+00 -4.19492738e+00 -2.33571863e+00 0.00000000e+00 -2.40127369e+00 -2.04899325e+00 -1.10413876e+00 0.00000000e+00 -8.00667304e-01 -7.38885306e-01 -3.83083625e-01 0.00000000e+00 0.00000000e+00 0.00000000e+00 0.00000000e+00 
        </DataArray>
        <DataArray type="Float64" Name="p">
          8.53373384e+02 9.17868449e+02 9.82363513e+02 1.04685858e+03 8.39321326e+02 9.05429152e+02 9.71536978e+02 1.03764480e+03 8.25269268e+02 8.92989855e+02 9.60710443e+02 1.02843103e+03 8.11217210e+02 8.80550559e+02 9.49883908e+02 1.01921726e+03 
        </DataArray>
      </PointData>
    </Piece>
    <Piece NumberOfPoints="16" NumberOfCells="9">
      <Points>
        <DataArray type="Float64" NumberOfComponents="3" format="ascii">
          6.00000000e+00 0.00000000e+00 0.00000000e+00 
7.00000000e+00 0.00000000e+00 0.00000000e+00 
8.00000000e+00 0.00000000e+00 0.00000000e+00 
9.00000000e+00 0.00000000e+00 0.00000000e+00 
6.00000000e+00 3.33333343e-01 0.00000000e+00 
7.00000000e+00 3.33333343e-01 0.00000000e+00 
8.00000000e+00 3.33333343e-01 0.00000000e+00 
9.00000000e+00 3.33333343e-01 0.00000000e+00 
6.00000000e+00 6.66666687e-01 0.00000000e+00 
7.00000000e+00 6.66666687e-01 0.00000000e+00 
8.00000000e+00 6.66666687e-01 0.00000000e+00 
9.00000000e+00 6.66666687e-01 0.00000000e+00 
6.00000000e+00 1.00000000e+00 0.00000000e+00 
7.00000000e+00 1.00000000e+00 0.00000000e+00 
8.00000000e+00 1.00000000e+00 0.00000000e+00 
9.00000000e+00 1.00000000e+00 0.00000000e+00 

        </DataArray>
      </Points>
      <Cells>
        <DataArray type="Int32" Name="connectivity" format="ascii">
0 1 5 4
4 5 9 8
8 9 13 12
1 2 6 5
5 6 10 9
9 10 14 13
2 3 7 6
6 7 11 10
10 11 15 14

        </DataArray>
        <DataArray type="Int32" Name="offsets" format="ascii">
4 8 12 16 20 24 28 32 36 
        </DataArray>
        <DataArray type="UInt8" Name="types" format="ascii">
9 9 9 9 9 9 9 9 9 
        </DataArray>
      </Cells>
      <PointData>
        <DataArray type="Float64" Name="u">