<?xml version="1.0"?>
<VTKFile type="UnstructuredGrid" version="0.1" byte_order="LittleEndian">
  <UnstructuredGrid>
    <Piece NumberOfPoints="16" NumberOfCells="9">
      <Points>
        <DataArray type="Float64" NumberOfComponents="3" format="ascii">
          0.00000000e+00 3.00000000e+00 0.00000000e+00 
1.00000000e+00 3.00000000e+00 0.00000000e+00 
2.00000000e+00 3.00000000e+00 0.00000000e+00 
3.00000000e+00 3.00000000e+00 0.00000000e+00 
0.00000000e+00 3.33333325e+00 0.00000000e+00 
1.00000000e+00 3.33333325e+00 0.00000000e+00 
2.00000000e+00 3.33333325e+00 0.00000000e+00 
3.00000000e+00 3.33333325e+00 0.00000000e+00 
0.00000000e+00 3.66666675e+00 0.00000000e+00 
1.00000000e+00 3.66666675e+00 0.00000000e+00 
2.00000000e+00 3.66666675e+00 0.00000000e+00 
3.00000000e+00 3.66666675e+00 0.00000000e+00 
0.00000000e+00 4.00000000e+00 0.00000000e+00 
1.00000000e+00 4.00000000e+00 0.00000000e+00 
2.00000000e+00 4.00000000e+00 0.00000000e+00 
3.00000000e+00 4.00000000e+00 0.00000000e+00 

        </DataArray>
      </Points>
      <Cells>
        <DataArray type="Int32" Name="connectivity" format="ascii">
0 1 5 4
4 5 9 8
8 9 13 12
1 2 6 5
5 6 10 9
9 10 14 13
2 3 7 6
6 7 11 10
10 11 15 14

        </DataArray>
        <DataArray type="Int32" Name="offsets" format="ascii">
4 8 12 16 20 24 28 32 36 
        </DataArray>
        <DataArray type="UInt8" Name="types" format="ascii">
9 9 9 9 9 9 9 9 9 
        </DataArray>
      </Cells>
      <PointData>
        <DataArray type="Float64" Name="u">
          0.00000000e+00 0.00000000e+00 0.00000000e+00 0.00000000e+00 8.88888889e+01 9.16284624e+01 9.06506782e+01 9.83647752e+01 1.55555556e+02 1.57990031e+02 1.57876780e+02 1.62920794e+02 2.00000000e+02 2.01173286e+02 2.01819743e+02 2.04210479e+02 
        </DataArray>
        <DataArray type="Float64" Name="v">
          0.00000000e+00 0.00000000e+00 0.00000000e+00 0.00000000e+00 0.00000000e+00 -6.94789086e-01 -9.61580413e-01 -3.51759035e+00 0.00000000e+00 -6.75176496e-01 -1.58245246e+00 -3.30124614e+00 0.00000000e+00 -1.56357536e+00 -2.83168934e+00 -5.05882385e+00 
        </DataArray>
        <DataArray type="Float64" Name="p">
          3.99617451e+03 2.44429260e+03 8.92410684e+02 -6.59471229e+02 3.99760949e+03 2.46844576e+03 9.39282032e+02 -5.89881700e+02 3.99904448e+03 2.49259893e+03 9.86153380e+02 -5.20292170e+02 4.00047947e+03 2.51675210e+03 1.03302473e+03 -4.50702641e+02 
        </DataArray>
      </PointData>
    </Piece>
    <Piece NumberOfPoints="16" NumberOfCells="9">
      <Points>
        <DataArray type="Float64" NumberOfComponents="3" format="ascii">
          0.00000000e+00 4.00000000e+00 0.00000000e+00 
1.00000000e+00 4.00000000e+00 0.00000000e+00 
2.00000000e+00 4.00000000e+00 0.00000000e+00 
3.00000000e+00 4.00000000e+00 0.00000000e+00 
0.00000000e+00 4.33333349e+00 0.00000000e+00 
1.00000000e+00 4.33333349e+00 0.00000000e+00 
2.00000000e+00 4.33333349e+00 0.00000000e+00 
3.00000000e+00 4.33333349e+00 0.00000000e+00 
0.00000000e+00 4.66666651e+00 0.00000000e+00 
1.00000000e+00 4.66666651e+00 0.00000000e+00 
2.00000000e+00 4.66666651e+00 0.00000000e+00 
3.00000000e+00 4.66666651e+00 0.00000000e+00 
0.00000000e+00 5.00000000e+00 0.00000000e+00 
1.00000000e+00 5.00000000e+00 0.00000000e+00 
2.00000000e+00 5.00000000e+00 0.00000000e+00 
3.00000000e+00 5.00000000e+00 0.00000000e+00 

        </DataArray>
      </Points>
      <Cells>
        <DataArray type="Int32" Name="connectivity" format="ascii">
0 1 5 4
4 5 9 8
8 9 13 12
1 2 6 5
5 6 10 9
9 10 14 13
2 3 7 6
6 7 11 10
10 11 15 14

        </DataArray>
        <DataArray type="Int32" Name="offsets" format="ascii">
4 8 12 16 20 24 28 32 36 
        </DataArray>
        <DataArray type="UInt8" Name="types" format="ascii">
9 9 9 9 9 9 9 9 9 
        </DataArray>
      </Cells>
      <PointData>
        <DataArray type="Float64" Name="u">
          2.00000000e+02 2.01173286e+02 2.01819743e+02 2.04210479e+02 2.22222222e+02 2.22199865e+02 2.22784614e+02 2.23094489e+02 2.22222222e+02 2.20998779e+02 2.21516340e+02 2.19608429e+02 2.00000000e+02 1.97829251e+02 1.98500089e+02 1.94346871e+02 
        </DataArray>
        <DataArray type="Float64" Name="v">
          0.00000000e+00 -1.56357536e+00 -2.83168934e+00 -5.05882385e+00 0.00000000e+00 -1.73619448e+00 -3.38539667e+00 -4.84018266e+00 0.00000000e+00 -1.75294352e+00 -3.24841433e+00 -5.06144942e+00 0.00000000e+00 -1.27774784e+00 -2.75412610e+00 -3.92658565e+00 
        </DataArray>
        <DataArray type="Float64" Name="p">
          4.02475955e+03 2.54372664e+03 1.06269374e+03 -4.18339168e+02 4.14944091e+03 2.66940096e+03 1.18936101e+03 -2.90678939e+02 4.27412227e+03 2.79507528e+03 1.31602828e+03 -1.63018710e+02 4.39880363e+03 2.92074959e+03 1.44269556e+03 -3.53584806e+01 
        </DataArray>
      </PointData>
    </Piece>
    <Piece NumberOfPoints="16" NumberOfCells="9">
      <Points>
        <DataArray type="Float64" NumberOfComponents="3" format="ascii">
          0.00000000e+00 5.00000000e+00 0.00000000e+00 
1.00000000e+00 5.00000000e+00 0.00000000e+00 
2.00000000e+00 5.00000000e+00 0.00000000e+00 
3.00000000e+00 5.00000000e+00 0.00000000e+00 
0.00000000e+00 5.33333349e+00 0.00000000e+00 
1.00000000e+00 5.33333349e+00 0.00000000e+00 
2.00000000e+00 5.33333349e+00 0.00000000e+00 
3.00000000e+00 5.33333349e+00 0.00000000e+00 
0.00000000e+00 5.66666651e+00 0.00000000e+00 
1.00000000e+00 5.66666651e+00 0.00000000e+00 
2.00000000e+00 5.66666651e+00 0.00000000e+00 
3.00000000e+00 5.66666651e+00 0.00000000e+00 
0.00000000e+00 6.00000000e+00 0.00000000e+00 
1.00000000e+00 6.00000000e+00 0.00000000e+00 
2.00000000e+00 6.00000000e+00 0.00000000e+00 
3.00000000e+00 6.00000000e+00 0.00000000e+00 

        </DataArray>
      </Points>
      <Cells>
        <DataArray type="Int32" Name="connectivity" format="ascii">
0 1 5 4
4 5 9 8
8 9 13 12
1 2 6 5
5 6 10 9
9 10 14 13
2 3 7 6
6 7 11 10
10 11 15 14

        </DataArray>
        <DataArray type="Int32" Name="offsets" format="ascii">
4 8 12 16 20 24 28 32 36 
        </DataArray>
        <DataArray type="UInt8" Name="types" format="ascii">
9 9 9 9 9 9 9 9 9 
        </DataArray>
      </Cells>
      <PointData>
        <DataArray type="Float64" Name="u">
          2.00000000e+02 1.97829251e+02 1.98500089e+02 1.94346871e+02 1.55555556e+02 1.53107992e+02 1.53846133e+02 1.48383205e+02 8.88888889e+01 8.69889362e+01 8.75298094e+01 8.19234084e+01 0.00000000e+00 0.00000000e+00 0.00000000e+00 0.00000000e+00 
        </DataArray>
        <DataArray type="Float64" Name="v">
          0.00000000e+00 -1.27774784e+00 -2.75412610e+00 -3.92658565e+00 0.00000000e+00 -5.01989248e-01 -1.47988461e+00 -2.31953070e+00 0.00000000e+00 -4.28616104e-01 -1.23922092e+00 -7.45546610e-01 0.00000000e+00 0.00000000e+00 0.00000000e+00 0.00000000e+00 
        </DataArray>
        <DataArray type="Float64" Name="p">
          4.39938902e+03 2.93614440e+03 1.47289979e+03 9.65518194e+00 4.42434992e+03 2.96411805e+03 1.50388619e+03 4.36543252e+01 4.44931082e+03 2.99209170e+03 1.53487259e+03 7.76534684e+01 4.47427172e+03 3.02006535e+03 1.56585898e+03 1.11652612e+02 
        </DataArray>
      </PointData>
    </Piece>
    <Piece NumberOfPoints="16" NumberOfCells="9">
      <Points>
        <DataArray type="Float64" NumberOfComponents="3" format="ascii">
          3.00000000e+00 0.00000000e+00 0.00000000e+00 
4.00000000e+00 0.00000000e+00 0.00000000e+00 
5.00000000e+00 0.00000000e+00 0.00000000e+00 
6.00000000e+00 0.00000000e+00 0.00000000e+00 
3.00000000e+00 3.33333343e-01 0.00000000e+00 
4.00000000e+00 3.33333343e-01 0.00000000e+00 
5.00000000e+00 3.33333343e-01 0.00000000e+00 
6.00000000e+00 3.33333343e-01 0.00000000e+00 
3.00000000e+00 6.66666687e-01 0.00000000e+00 
4.00000000e+00 6.66666687e-01 0.00000000e+00 
5.00000000e+00 6.66666687e-01 0.00000000e+00 
6.00000000e+00 6.66666687e-01 0.00000000e+00 
3.00000000e+00 1.00000000e+00 0.00000000e+00 
4.00000000e+00 1.00000000e+00 0.00000000e+00 
5.00000000e+00 1.00000000e+00 0.00000000e+00 
6.00000000e+00 1.00000000e+00 0.00000000e+00 

        </DataArray>
      </Points>
      <Cells>
        <DataArray type="Int32" Name="connectivity" format="ascii">
0 1 5 4
4 5 9 8
8 9 13 12
1 2 6 5
5 6 10 9
9 10 14 13
2 3 7 6
6 7 11 10
10 11 15 14

        </DataArray>
        <DataArray type="Int32" Name="offsets" format="ascii">
4 8 12 16 20 24 28 32 36 
        </DataArray>
        <DataArray type="UInt8" Name="types" format="ascii">
9 9 9 9 9 9 9 9 9 
        </DataArray>
      </Cells>
      <PointData>
        <DataArray type="Float64" Name="u">
          0.00000000e+00 0.00000000e+00 0.00000000e+00 0.00000000e+00 0.00000000e+00 -4.63246679e+00 -6.89222182e+00 -1.26330988e+01 0.00000000e+00 -7.79331496e+00 -1.19163275e+01 -2.08501150e+01 0.00000000e+00 -9.57754303e+00 -1.43699820e+01 -2.35388946e+01 
        </DataArray>
        <DataArray type="Float64" Name="v">
          0.00000000e+00 0.00000000e+00 0.00000000e+00 0.00000000e+00 0.00000000e+00 1.06134836e+00 1.10554676e+00 7.38847211e-01 0.00000000e+00 3.08101459e+00 2.96186980e+00 1.71577733e+00 0.00000000e+00 6.57082243e+00 6.10128648e+00 3.31318529e+00 
        </DataArray>
        <DataArray type="Float64" Name="p">
          -9.00786548e+02 -7.96022295e+02 -6.91258042e+02 -5.86493789e+02 -8.84005910e+02 -7.81491016e+02 -6.78976122e+02 -5.76461228e+02 -8.67225271e+02 -7.66959736e+02 -6.66694201e+02 -5.66428666e+02 -8.50444633e+02 -7.52428457e+02 -6.54412281e+02 -5.56396105e+02 
        </DataArray>
      </PointData>
    </Piece>
    <Piece NumberOfPoints="16" NumberOfCells="9">
      <Points>
        <DataArray type="Float64" NumberOfComponents="3" format="ascii">
          3.00000000e+00 1.00000000e+00 0.00000000e+00 
4.00000000e+00 1.00000000e+00 0.00000000e+00 
5.00000000e+00 1.00000000e+00 0.00000000e+00 
6.00000000e+00 1.00000000e+00 0.00000000e+00 
3.00000000e+00 1.33333337e+00 0.00000000e+00 
4.00000000e+00 1.33333337e+00 0.00000000e+00 
5.00000000e+00 1.33333337e+00 0.00000000e+00 
6.00000000e+00 1.33333337e+00 0.00000000e+00 
3.00000000e+00 1.66666663e+00 0.00000000e+00 
4.00000000e+00 1.66666663e+00 0.00000000e+00 
5.00000000e+00 1.66666663e+00 0.00000000e+00 
6.00000000e+00 1.66666663e+00 0.00000000e+00 
3.00000000e+00 2.00000000e+00 0.00000000e+00 
4.00000000e+00 2.00000000e+00 0.00000000e+00 
5.00000000e+00 2.00000000e+00 0.00000000e+00 
6.00000000e+00 2.00000000e+00 0.00000000e+00 

        </DataArray>
      </Points>
      <Cells>
        <DataArray type="Int32" Name="connectivity" format="ascii">
0 1 5 4
4 5 9 8
8 9 13 12
1 2 6 5
5 6 10 9
9 10 14 13
2 3 7 6
6 7 11 10
10 11 15 14

        </DataArray>
        <DataArray type="Int32" Name="offsets" format="ascii">
4 8 12 16 20 24 28 32 36 
        </DataArray>
        <DataArray type="UInt8" Name="types" format="ascii">
9 9 9 9 9 9 9 9 9 
        </DataArray>
      </Cells>
      <PointData>
        <DataArray type="Float64" Name="u">
          0.00000000e+00 -9.57754303e+00 -1.43699820e+01 -2.35388946e+01 0.00000000e+00 -9.99859283e+00 -1.37235652e+01 -2.05241360e+01 0.00000000e+00 -8.88569023e+00 -9.68076674e+00 -1.15000337e+01 0.00000000e+00 -5.61811657e+00 -1.71186751e+00 3.83363040e+00 
        </DataArray>
        <DataArray type="Float64" Name="v">
          0.00000000e+00 6.57082243e+00 6.10128648e+00 3.31318529e+00 0.00000000e+00 1.04791523e+01 8.93409882e+00 3.99354515e+00 0.00000000e+00 1.33804302e+01 1.05368553e+01 3.40715745e+00 0.00000000e+00 1.58509679e+01 1.05314032e+01 7.74989684e-01 
        </DataArray>
        <DataArray type="Float64" Name="p">
          -8.39222206e+02 -7.52503278e+02 -6.65784349e+02 -5.79065421e+02 -9.03397016e+02 -8.20987282e+02 -7.38577547e+02 -6.56167812e+02 -9.67571827e+02 -8.89471286e+02 -8.11370744e+02 -7.33270203e+02 -1.03174664e+03 -9.57955290e+02 -8.84163942e+02 -8.10372594e+02 
        </DataArray>
      </PointData>
    </Piece>
    <Piece NumberOfPoints="16" NumberOfCells="9">
      <Points>
        <DataArray type="Float64" NumberOfComponents="3" format="ascii">
          3.00000000e+00 2.00000000e+00 0.00000000e+00 
4.00000000e+00 2.00000000e+00 0.00000000e+00 
5.00000000e+00 2.00000000e+00 0.00000000e+00 
6.00000000e+00 2.00000000e+00 0.00000000e+00 
3.00000000e+00 2.33333325e+00 0.00000000e+00 
4.00000000e+00 2.33333325e+00 0.00000000e+00 
5.00000000e+00 2.33333325e+00 0.00000000e+00 
6.00000000e+00 2.33333325e+00 0.00000000e+00 
3.00000000e+00 2.66666675e+00 0.00000000e+00 
4.00000000e+00 2.66666675e+00 0.00000000e+00 
5.00000000e+00 2.66666675e+00 0.00000000e+00 
6.00000000e+00 2.66666675e+00 0.00000000e+00 
3.00000000e+00 3.00000000e+00 0.00000000e+00 
4.00000000e+00 3.00000000e+00 0.00000000e+00 
5.00000000e+00 3.00000000e+00 0.00000000e+00 
6.00000000e+00 3.00000000e+00 0.00000000e+00 

        </DataArray>
      </Points>
      <Cells>
        <DataArray type="Int32" Name="connectivity" format="ascii">
0 1 5 4
4 5 9 8
8 9 13 12
1 2 6 5
5 6 10 9
9 10 14 13
2 3 7 6
6 7 11 10
10 11 15 14

        </DataArray>
        <DataArray type="Int32" Name="offsets" format="ascii">
4 8 12 16 20 24 28 32 36 
        </DataArray>
        <DataArray type="UInt8" Name="types" format="ascii">
9 9 9 9 9 9 9 9 9 
        </DataArray>
      </Cells>
      <PointData>
        <DataArray type="Float64" Name="u">
          0.00000000e+00 -5.61811657e+00 -1.71186751e+00 3.83363040e+00 0.00000000e+00 1.32074529e+00 1.08569819e+01 2.68482084e+01 0.00000000e+00 1.82191790e+01 3.29570364e+01 5.64601266e+01 0.00000000e+00 5.73992755e+01 7.02910351e+01 9.48197077e+01 
        </DataArray>
        <DataArray type="Float64" Name="v">
          0.00000000e+00 1.58509679e+01 1.05314032e+01 7.74989684e-01 0.00000000e+00 1.63531816e+01 6.79758024e+00 -4.72740929e+00 0.00000000e+00 1.15238730e+01 2.12901566e+00 -8.68786080e+00 0.00000000e+00 -1.33651489e+00 -6.76624937e+00 -1.19623852e+01 
        </DataArray>
        <DataArray type="Float64" Name="p">
          -9.89948318e+02 -9.68134464e+02 -9.46320610e+02 -9.24506757e+02 -1.26397648e+03 -1.08505523e+03 -9.06133975e+02 -7.27212723e+02 -1.53800464e+03 -1.20197599e+03 -8.65947340e+02 -5.29918689e+02 -1.81203280e+03 -1.31889675e+03 -8.25760704e+02 -3.32624656e+02 
        </DataArray>
      </PointData>
    </Piece>
    <Piece NumberOfPoints="16" NumberOfCells="9">
      <Points>
        <DataArray type="Float64" NumberOfComponents="3" format="ascii">
          3.00000000e+00 3.00000000e+00 0.00000000e+00 
4.00000000e+00 3.00000000e+00 0.00000000e+00 
5.00000000e+00 3.00000000e+00 0.00000000e+00 
6.00000000e+00 3.00000000e+00 0.00000000e+00 
3.00000000e+00 3.33333325e+00 0.00000000e+00 
4.00000000e+00 3.33333325e+00 0.00000000e+00 
5.00000000e+00 3.33333325e+00 0.00000000e+00 
6.00000000e+00 3.33333325e+00 0.00000000e+00 
3.00000000e+00 3.66666675e+00 0.00000000e+00 
4.00000000e+00 3.66666675e+00 0.00000000e+00 
5.00000000e+00 3.66666675e+00 0.00000000e+00 
6.00000000e+00 3.66666675e+00 0.00000000e+00 
3.00000000e+00 4.00000000e+00 0.00000000e+00 
4.00000000e+00 4.00000000e+00 0.00000000e+00 
5.00000000e+00 4.00000000e+00 0.00000000e+00 
6.00000000e+00 4.00000000e+00 0.00000000e+00 

        </DataArray>
      </Points>
      <Cells>
        <DataArray type="Int32" Name="connectivity" format="ascii">
0 1 5 4
4 5 9 8
8 9 13 12
1 2 6 5
5 6 10 9
9 10 14 13
2 3 7 6
6 7 11 10
10 11 15 14

        </DataArray>
        <DataArray type="Int32" Name="offsets" format="ascii">
4 8 12 16 20 24 28 32 36 
        </DataArray>
        <DataArray type="UInt8" Name="types" format="ascii">
9 9 9 9 9 9 9 9 9 
        </DataArray>
      </Cells>
      <PointData>
        <DataArray type="Float64" Name="u">
          0.00000000e+00 5.73992755e+01 7.02910351e+01 9.48197077e+01 9.83647752e+01 1.08314894e+02 1.20884204e+02 1.32613675e+02 1.62920794e+02 1.61443881e+02 1.67325066e+02 1.69629237e+02 2.04210479e+02 1.97896376e+02 1.99774810e+02 1.93999931e+02 
        </DataArray>
        <DataArray type="Float64" Name="v">
          0.00000000e+00 -1.33651489e+00 -6.76624937e+00 -1.19623852e+01 -3.51759035e+00 -1.21530432e+01 -1.36948456e+01 -1.32733503e+01 -3.30124614e+00 -1.27503225e+01 -1.56784484e+01 -1.50440343e+01 -5.05882385e+00 -1.22736189e+01 -1.54215394e+01 -1.72867749e+01 
        </DataArray>
        <DataArray type="Float64" Name="p">
          -1.94486808e+03 -1.36123880e+03 -7.77609523e+02 -1.93980244e+02 -1.35228987e+03 -1.01740975e+03 -6.82529620e+02 -3.47649494e+02 -7.59711663e+02 -6.73580690e+02 -5.87449717e+02 -5.01318745e+02 -1.67133453e+02 -3.29751634e+02 -4.92369814e+02 -6.54987995e+02 
        </DataArray>
      </PointData>
    </Piece>
    <Piece NumberOfPoints="16" NumberOfCells="9">
      <Points>
        <DataArray type="Float64" NumberOfComponents="3" format="ascii">
          3.00000000e+00 4.00000000e+00 0.00000000e+00 
4.00000000e+00 4.00000000e+00 0.00000000e+00 
5.00000000e+00 4.00000000e+00 0.00000000e+00 
6.00000000e+00 4.00000000e+00 0.00000000e+00 
3.00000000e+00 4.33333349e+00 0.00000000e+00 
4.00000000e+00 4.33333349e+00 0.00000000e+00 
5.00000000e+00 4.33333349e+00 0.00000000e+00 
6.00000000e+00 4.33333349e+00 0.00000000e+00 
3.00000000e+00 4.66666651e+00 0.00000000e+00 
4.00000000e+00 4.66666651e+00 0.00000000e+00 
5.00000000e+00 4.66666651e+00 0.00000000e+00 
6.00000000e+00 4.66666651e+00 0.00000000e+00 
3.00000000e+00 5.00000000e+00 0.00000000e+00 
4.00000000e+00 5.00000000e+00 0.00000000e+00 
5.00000000e+00 5.00000000e+00 0.00000000e+00 
6.00000000e+00 5.00000000e+00 0.00000000e+00 

        </DataArray>
      </Points>
      <Cells>
        <DataArray type="Int32" Name="connectivity" format="ascii">
0 1 5 4
4 5 9 8
8 9 13 12
1 2 6 5
5 6 10 9
9 10 14 13
2 3 7 6
6 7 11 10
10 11 15 14

        </DataArray>
        <DataArray type="Int32" Name="offsets" format="ascii">
4 8 12 16 20 24 28 32 36 
        </DataArray>
        <DataArray type="UInt8" Name="types" format="ascii">
9 9 9 9 9 9 9 9 9 
        </DataArray>
      </Cells>
      <PointData>
        <DataArray type="Float64" Name="u">
          2.04210479e+02 1.97896376e+02 1.99774810e+02 1.93999931e+02 2.23094489e+02 2.14292216e+02 2.11790497e+02 2.02002702e+02 2.19608429e+02 2.09236675e+02 2.03918347e+02 1.91102211e+02 1.94346871e+02 1.83911363e+02 1.77411105e+02 1.63811261e+02 
        </DataArray>
        <DataArray type="Float64" Name="v">
          -5.05882385e+00 -1.22736189e+01 -1.54215394e+01 -1.72867749e+01 -4.84018266e+00 -8.78797622e+00 -1.30542229e+01 -1.66744004e+01 -5.06144942e+00 -7.66713103e+00 -1.03116547e+01 -1.41991119e+01 -3.92658565e+00 -2.83638044e+00 -6.18712612e+00 -1.12539108e+01 
        </DataArray>
        <DataArray type="Float64" Name="p">
          3.41276602e+01 -2.00590973e+02 -4.35309606e+02 -6.70028239e+02 2.73586019e+02 6.62364656e+01 -1.41113088e+02 -3.48462641e+02 5.13044378e+02 3.33063904e+02 1.53083430e+02 -2.68970435e+01 7.52502737e+02 5.99891343e+02 4.47279949e+02 2.94668554e+02 
        </DataArray>
      </PointData>
    </Piece>
    <Piece NumberOfPoints="16" NumberOfCells="9">
      <Points>
        <DataArray type="Float64" NumberOfComponents="3" format="ascii">
          3.00000000e+00 5.00000000e+00 0.00000000e+00 
4.00000000e+00 5.00000000e+00 0.00000000e+00 
5.00000000e+00 5.00000000e+00 0.00000000e+00 
6.00000000e+00 5.00000000e+00 0.00000000e+00 
3.00000000e+00 5.33333349e+00 0.00000000e+00 
4.00000000e+00 5.33333349e+00 0.00000000e+00 
5.00000000e+00 5.33333349e+00 0.00000000e+00 
6.00000000e+00 5.33333349e+00 0.00000000e+00 
3.00000000e+00 5.66666651e+00 0.00000000e+00 
4.00000000e+00 5.66666651e+00 0.00000000e+00 
5.00000000e+00 5.66666651e+00 0.00000000e+00 
6.00000000e+00 5.66666651e+00 0.00000000e+00 
3.00000000e+00 6.00000000e+00 0.00000000e+00 
4.00000000e+00 6.00000000e+00 0.00000000e+00 
5.00000000e+00 6.00000000e+00 0.00000000e+00 
6.00000000e+00 6.00000000e+00 0.00000000e+00 

        </DataArray>
      </Points>
      <Cells>
        <DataArray type="Int32" Name="connectivity" format="ascii">
0 1 5 4
4 5 9 8
8 9 13 12
1 2 6 5
5 6 10 9
9 10 14 13
2 3 7 6
6 7 11 10
10 11 15 14

        </DataArray>
        <DataArray type="Int32" Name="offsets" format="ascii">
4 8 12 16 20 24 28 32 36 
        </DataArray>
        <DataArray type="UInt8" Name="types" format="ascii">
9 9 9 9 9 9 9 9 9 
        </DataArray>
      </Cells>
      <PointData>
        <DataArray type="Float64" Name="u">
          1.94346871e+02 1.83911363e+02 1.77411105e+02 1.63811261e+02 1.48383205e+02 1.40167294e+02 1.34863678e+02 1.25250515e+02 8.19234084e+01 8.58728671e+01 8.55506629e+01 8.44606201e+01 0.00000000e+00 4.12548069e+01 4.24930180e+01 5.28833074e+01 
        </DataArray>
        <DataArray type="Float64" Name="v">
          -3.92658565e+00 -2.83638044e+00 -6.18712612e+00 -1.12539108e+01 -2.31953070e+00 1.01831603e+00 -1.62499641e+00 -7.57926366e+00 -7.45546610e-01 8.00607804e-01 -2.57211152e+00 -5.85258395e+00 0.00000000e+00 -5.45612164e+00 -3.62268931e+00 -1.86833742e+00 
        </DataArray>
        <DataArray type="Float64" Name="p">
          6.21854057e+02 5.68669808e+02 5.15485560e+02 4.62301311e+02 3.53619730e+02 4.76480994e+02 5.99342258e+02 7.22203522e+02 8.53854033e+01 3.84292180e+02 6.83198956e+02 9.82105733e+02 -1.82848924e+02 2.92103366e+02 7.67055655e+02 1.24200794e+03 
        </DataArray>
      </PointData>
    </Piece>
    <Piece NumberOfPoints="16" NumberOfCells="9">
      <Points>
        <DataArray type="Float64" NumberOfComponents="3" format="ascii">
          3.00000000e+00 6.00000000e+00 0.00000000e+00 
4.00000000e+00 6.00000000e+00 0.00000000e+00 
5.00000000e+00 6.00000000e+00 0.00000000e+00 
6.00000000e+00 6.00000000e+00 0.00000000e+00 
3.00000000e+00 6.33333349e+00 0.00000000e+00 
4.00000000e+00 6.33333349e+00 0.00000000e+00 
5.00000000e+00 6.33333349e+00 0.00000000e+00 
6.00000000e+00 6.33333349e+00 0.00000000e+00 
3.00000000e+00 6.66666651e+00 0.00000000e+00 
4.00000000e+00 6.66666651e+00 0.00000000e+00 
5.00000000e+00 6.66666651e+00 0.00000000e+00 
6.00000000e+00 6.66666651e+00 0.00000000e+00 
3.00000000e+00 7.00000000e+00 0.00000000e+00 
4.00000000e+00 7.00000000e+00 0.00000000e+00 
5.00000000e+00 7.00000000e+00 0.00000000e+00 
6.00000000e+00 7.00000000e+00 0.00000000e+00 

        </DataArray>
      </Points>
      <Cells>
        <DataArray type="Int32" Name="connectivity" format="ascii">
0 1 5 4
4 5 9 8
8 9 13 12
1 2 6 5
5 6 10 9
9 10 14 13
2 3 7 6
6 7 11 10
10 11 15 14

        </DataArray>
        <DataArray type="Int32" Name="offsets" format="ascii">
4 8 12 16 20 24 28 32 36 
        </DataArray>
        <DataArray type="UInt8" Name="types" format="ascii">
9 9 9 9 9 9 9 9 9 
        </DataArray>
      </Cells>
      <PointData>
        <DataArray type="Float64" Name="u">
          0.00000000e+00 4.12548069e+01 4.24930180e+01 5.28833074e+01 0.00000000e+00 1.07916962e+01 1.60188144e+01 2.46598285e+01 0.00000000e+00 -1.67346080e+00 1.18659420e+00 4.97243833e+00 0.00000000e+00 -6.48114702e+00 -6.80241138e+00 -8.43221790e+00 
        </DataArray>
        <DataArray type="Float64" Name="v">
          0.00000000e+00 -5.45612164e+00 -3.62268931e+00 -1.86833742e+00 0.00000000e+00 -1.34629069e+01 -7.36643344e+00 -1.45587055e+00 0.00000000e+00 -1.56233962e+01 -8.43738832e+00 -2.26682368e+00 0.00000000e+00 -1.40511319e+01 -9.21753207e+00 -3.74807512e+00 
        </DataArray>
        <DataArray type="Float64" Name="p">
          -1.48792916e+02 2.42059747e+02 6.32912409e+02 1.02376507e+03 7.32151096e+01 3.53667559e+02 6.34120007e+02 9.14572456e+02 2.95223136e+02 4.65275370e+02 6.35327605e+02 8.05379840e+02 5.17231161e+02 5.76883182e+02 6.36535203e+02 6.96187224e+02 
        </DataArray>
      </PointData>
    </Piece>
    <Piece NumberOfPoints="16" NumberOfCells="9">
      <Points>
        <DataArray type="Float64" NumberOfComponents="3" format="ascii">
          3.00000000e+00 7.00000000e+00 0.00000000e+00 
4.00000000e+00 7.00000000e+00 0.00000000e+00 
5.00000000e+00 7.00000000e+00 0.00000000e+00 
6.00000000e+00 7.00000000e+00 0.00000000e+00 
3.00000000e+00 7.33333349e+00 0.00000000e+00 
4.00000000e+00 7.33333349e+00 0.00000000e+00 
5.00000000e+00 7.33333349e+00 0.00000000e+00 
6.00000000e+00 7.33333349e+00 0.00000000e+00 
3.00000000e+00 7.66666651e+00 0.00000000e+00 
4.00000000e+00 7.66666651e+00 0.00000000e+00 
5.00000000e+00 7.66666651e+00 0.00000000e+00 
6.00000000e+00 7.66666651e+00 0.00000000e+00 
3.00000000e+00 8.00000000e+00 0.00000000e+00 
4.00000000e+00 8.00000000e+00 0.00000000e+00 
5.00000000e+00 8.00000000e+00 0.00000000e+00 
6.00000000e+00 8.00000000e+00 0.00000000e+00 

        </DataArray>
      </Points>
      <Cells>
        <DataArray type="Int32" Name="connectivity" format="ascii">
0 1 5 4
4 5 9 8
8 9 13 12
1 2 6 5
5 6 10 9
9 10 14 13
2 3 7 6
6 7 11 10
10 11 15 14

        </DataArray>
        <DataArray type="Int32" Name="offsets" format="ascii">
4 8 12 16 20 24 28 32 36 
        </DataArray>
        <DataArray type="UInt8" Name="types" format="ascii">
9 9 9 9 9 9 9 9 9 
        </DataArray>
      </Cells>
      <PointData>
        <DataArray type="Float64" Name="u">
          0.00000000e+00 -6.48114702e+00 -6.80241138e+00 -8.43221790e+00 0.00000000e+00 -8.30056407e+00 -1.11625225e+01 -1.57988984e+01 0.00000000e+00 -8.45197569e+00 -1.26184413e+01 -1.88866869e+01 0.00000000e+00 -7.55101351e+00 -1.18252113e+01 -1.84128877e+01 
        </DataArray>
        <DataArray type="Float64" Name="v">
          0.00000000e+00 -1.40511319e+01 -9.21753207e+00 -3.74807512e+00 0.00000000e+00 -1.11874827e+01 -8.00008626e+00 -3.90090713e+00 0.00000000e+00 -8.45490847e+00 -6.33492693e+00 -3.36424983e+00 0.00000000e+00 -5.10337239e+00 -4.10052452e+00 -2.30842245e+00 
        </DataArray>
        <DataArray type="Float64" Name="p">
          4.97419858e+02 5.87432730e+02 6.77445601e+02 7.67458473e+02 5.62879641e+02 6.40902670e+02 7.18925699e+02 7.96948728e+02 6.28339424e+02 6.94372611e+02 7.60405797e+02 8.26438984e+02 6.93799207e+02 7.47842551e+02 8.01885895e+02 8.55929240e+02 
        </DataArray>
      </PointData>
    </Piece>
    <Piece NumberOfPoints="16" NumberOfCells="9">
      <Points>
        <DataArray type="Float64" NumberOfComponents="3" format="ascii">
          3.00000000e+00 8.00000000e+00 0.00000000e+00 
4.00000000e+00 8.00000000e+00 0.00000000e+00 
5.00000000e+00 8.00000000e+00 0.00000000e+00 
6.00000000e+00 8.00000000e+00 0.00000000e+00 
3.00000000e+00 8.33333302e+00 0.00000000e+00 
4.00000000e+00 8.33333302e+00 0.00000000e+00 
5.00000000e+00 8.33333302e+00 0.00000000e+00 
6.00000000e+00 8.33333302e+00 0.00000000e+00 
3.00000000e+00 8.66666698e+00 0.00000000e+00 
4.00000000e+00 8.66666698e+00 0.00000000e+00 
5.00000000e+00 8.66666698e+00 0.00000000e+00 
6.00000000e+00 8.66666698e+00 0.00000000e+00 
3.00000000e+00 9.00000000e+00 0.00000000e+00 
4.00000000e+00 9.00000000e+00 0.00000000e+00 
5.00000000e+00 9.00000000e+00 0.00000000e+00 
6.00000000e+00 9.00000000e+00 0.00000000e+00 

        </DataArray>
      </Points>
      <Cells>
        <DataArray type="Int32" Name="connectivity" format="ascii">
0 1 5 4
4 5 9 8
8 9 13 12
1 2 6 5
5 6 10 9
9 10 14 13
2 3 7 6
6 7 11 10
10 11 15 14

        </DataArray>
        <DataArray type="Int32" Name="offsets" format="ascii">
4 8 12 16 20 24 28 32 36 
        </DataArray>
        <DataArray type="UInt8" Name="types" format="ascii">
9 9 9 9 9 9 9 9 9 
        </DataArray>
      </Cells>
      <PointData>
        <DataArray type="Float64" Name="u">
          0.00000000e+00 -7.55101351e+00 -1.18252113e+01 -1.84128877e+01 0.00000000e+00 -5.85847341e+00 -9.22661584e+00 -1.49830539e+01 0.00000000e+00 -3.37188194e+00 -5.15411111e+00 -8.79943005e+00 0.00000000e+00 0.00000000e+00 0.00000000e+00 0.00000000e+00 
        </DataArray>
        <DataArray type="Float64" Name="v">
          0.00000000e+00 -5.10337239e+00 -4.10052452e+00 -2.30842245e+00 0.00000000e+00 -2.34111658e+00 -1.99887359e+00 -1.08742597e+00 0.00000000e+00 -7.78235209e-01 -7.18358733e-01 -3.74798311e-01 0.00000000e+00 0.00000000e+00 0.00000000e+00 0.00000000e+00 
        </DataArray>
        <DataArray type="Float64" Name="p">
          6.83837211e+02 7.43117096e+02 8.02396981e+02 8.61676866e+02 6.70476923e+02 7.31250157e+02 7.92023391e+02 8.52796624e+02 6.57116634e+02 7.19383217e+02 7.81649800e+02 8.43916383e+02 6.43756346e+02 7.07516278e+02 7.71276209e+02 8.35036141e+02 
        </DataArray>
      </PointData>
    </Piece>
    <Piece NumberOfPoints="16" NumberOfCells="9">
      <Points>
        <DataArray type="Float64" NumberOfComponents="3" format="ascii">
          6.00000000e+00 0.00000000e+00 0.00000000e+00 
7.00000000e+00 0.00000000e+00 0.00000000e+00 
8.00000000e+00 0.00000000e+00 0.00000000e+00 
9.00000000e+00 0.00000000e+00 0.00000000e+00 
6.00000000e+00 3.33333343e-01 0.00000000e+00 
7.00000000e+00 3.33333343e-01 0.00000000e+00 
8.00000000e+00 3.33333343e-01 0.00000000e+00 
9.00000000e+00 3.33333343e-01 0.00000000e+00 
6.00000000e+00 6.66666687e-01 0.00000000e+00 
7.00000000e+00 6.66666687e-01 0.00000000e+00 
8.00000000e+00 6.66666687e-01 0.00000000e+00 
9.00000000e+00 6.66666687e-01 0.00000000e+00 
6.00000000e+00 1.00000000e+00 0.00000000e+00 
7.00000000e+00 1.00000000e+00 0.00000000e+00 
8.00000000e+00 1.00000000e+00 0.00000000e+00 
9.00000000e+00 1.00000000e+00 0.00000000e+00 

        </DataArray>
      </Points>
      <Cells>
        <DataArray type="Int32" Name="connectivity" format="ascii">
0 1 5 4
4 5 9 8
8 9 13 12
1 2 6 5
5 6 10 9
9 10 14 13
2 3 7 6
6 7 11 10
10 11 15 14

        </DataArray>
        <DataArray type="Int32" Name="offsets" format="ascii">
4 8 12 16 20 24 28 32 36 
        </DataArray>
        <DataArray type="UInt8" Name="types" format="ascii">
9 9 9 9 9 9 9 9 9 
        </DataArray>
      </Cells>
      <PointData>
        <DataArray type="Float64" Name="u">