<?xml version="1.0"?>
<VTKFile type="UnstructuredGrid" version="0.1" byte_order="LittleEndian">
  <UnstructuredGrid>
    <Piece NumberOfPoints="16" NumberOfCells="9">
      <Points>
        <DataArray type="Float64" NumberOfComponents="3" format="ascii">
          0.00000000e+00 3.00000000e+00 0.00000000e+00 
1.00000000e+00 3.00000000e+00 0.00000000e+00 
2.00000000e+00 3.00000000e+00 0.00000000e+00 
3.00000000e+00 3.00000000e+00 0.00000000e+00 
0.00000000e+00 3.33333325e+00 0.00000000e+00 
1.00000000e+00 3.33333325e+00 0.00000000e+00 
2.00000000e+00 3.33333325e+00 0.00000000e+00 
3.00000000e+00 3.33333325e+00 0.00000000e+00 
0.00000000e+00 3.66666675e+00 0.00000000e+00 
1.00000000e+00 3.66666675e+00 0.00000000e+00 
2.00000000e+00 3.66666675e+00 0.00000000e+00 
3.00000000e+00 3.66666675e+00 0.00000000e+00 
0.00000000e+00 4.00000000e+00 0.00000000e+00 
1.00000000e+00 4.00000000e+00 0.00000000e+00 
2.00000000e+00 4.00000000e+00 0.00000000e+00 
3.00000000e+00 4.00000000e+00 0.00000000e+00 

        </DataArray>
      </Points>
      <Cells>
        <DataArray type="Int32" Name="connectivity" format="ascii">
0 1 5 4
4 5 9 8
8 9 13 12
1 2 6 5
5 6 10 9
9 10 14 13
2 3 7 6
6 7 11 10
10 11 15 14

        </DataArray>
        <DataArray type="Int32" Name="offsets" format="ascii">
4 8 12 16 20 24 28 32 36 
        </DataArray>
        <DataArray type="UInt8" Name="types" format="ascii">
9 9 9 9 9 9 9 9 9 
        </DataArray>
      </Cells>
      <PointData>
        <DataArray type="Float64" Name="u">
          0.00000000e+00 0.00000000e+00 0.00000000e+00 0.00000000e+00 8.88888889e+01 9.56554395e+01 9.27282090e+01 1.07125930e+02 1.55555556e+02 1.60231876e+02 1.58987374e+02 1.67063267e+02 2.00000000e+02 2.02603422e+02 2.02164338e+02 2.07726648e+02 
        </DataArray>
        <DataArray type="Float64" Name="v">
          0.00000000e+00 0.00000000e+00 0.00000000e+00 0.00000000e+00 0.00000000e+00 -1.97334889e+00 -2.80234349e+00 -4.42803865e+00 0.00000000e+00 -1.21138904e+00 -2.78580167e+00 -4.43876318e+00 0.00000000e+00 -3.15298927e+00 -5.19204553e+00 -7.28519745e+00 
        </DataArray>
        <DataArray type="Float64" Name="p">
          -3.06909727e+03 -3.54537244e+03 -4.02164760e+03 -4.49792277e+03 -3.01090586e+03 -3.48604360e+03 -3.96118133e+03 -4.43631907e+03 -2.95271445e+03 -3.42671476e+03 -3.90071506e+03 -4.37471536e+03 -2.89452304e+03 -3.36738592e+03 -3.84024879e+03 -4.31311166e+03 
        </DataArray>
      </PointData>
    </Piece>
    <Piece NumberOfPoints="16" NumberOfCells="9">
      <Points>
        <DataArray type="Float64" NumberOfComponents="3" format="ascii">
          0.00000000e+00 4.00000000e+00 0.00000000e+00 
1.00000000e+00 4.00000000e+00 0.00000000e+00 
2.00000000e+00 4.00000000e+00 0.00000000e+00 
3.00000000e+00 4.00000000e+00 0.00000000e+00 
0.00000000e+00 4.33333349e+00 0.00000000e+00 
1.00000000e+00 4.33333349e+00 0.00000000e+00 
2.00000000e+00 4.33333349e+00 0.00000000e+00 
3.00000000e+00 4.33333349e+00 0.00000000e+00 
0.00000000e+00 4.66666651e+00 0.00000000e+00 
1.00000000e+00 4.66666651e+00 0.00000000e+00 
2.00000000e+00 4.66666651e+00 0.00000000e+00 
3.00000000e+00 4.66666651e+00 0.00000000e+00 
0.00000000e+00 5.00000000e+00 0.00000000e+00 
1.00000000e+00 5.00000000e+00 0.00000000e+00 
2.00000000e+00 5.00000000e+00 0.00000000e+00 
3.00000000e+00 5.00000000e+00 0.00000000e+00 

        </DataArray>
      </Points>
      <Cells>
        <DataArray type="Int32" Name="connectivity" format="ascii">
0 1 5 4
4 5 9 8
8 9 13 12
1 2 6 5
5 6 10 9
9 10 14 13
2 3 7 6
6 7 11 10
10 11 15 14

        </DataArray>
        <DataArray type="Int32" Name="offsets" format="ascii">
4 8 12 16 20 24 28 32 36 
        </DataArray>
        <DataArray type="UInt8" Name="types" format="ascii">
9 9 9 9 9 9 9 9 9 
        </DataArray>
      </Cells>
      <PointData>
        <DataArray type="Float64" Name="u">
          2.00000000e+02 2.02603422e+02 2.02164338e+02 2.07726648e+02 2.22222222e+02 2.23117786e+02 2.22903614e+02 2.24195918e+02 2.22222222e+02 2.21264135e+02 2.20893549e+02 2.19098073e+02 2.00000000e+02 1.97543131e+02 1.97352952e+02 1.91901225e+02 
        </DataArray>
        <DataArray type="Float64" Name="v">
          0.00000000e+00 -3.15298927e+00 -5.19204553e+00 -7.28519745e+00 0.00000000e+00 -3.56363107e+00 -6.03913552e+00 -7.56865247e+00 0.00000000e+00 -3.57413711e+00 -5.98260222e+00 -7.55512950e+00 0.00000000e+00 -3.00788905e+00 -5.15516908e+00 -6.55663175e+00 
        </DataArray>
        <DataArray type="Float64" Name="p">
          -2.86877460e+03 -3.33976448e+03 -3.81075436e+03 -4.28174423e+03 -2.57802194e+03 -3.11814974e+03 -3.65827754e+03 -4.19840535e+03 -2.28726927e+03 -2.89653500e+03 -3.50580073e+03 -4.11506646e+03 -1.99651661e+03 -2.67492026e+03 -3.35332392e+03 -4.03172757e+03 
        </DataArray>
      </PointData>
    </Piece>
    <Piece NumberOfPoints="16" NumberOfCells="9">
      <Points>
        <DataArray type="Float64" NumberOfComponents="3" format="ascii">
          0.00000000e+00 5.00000000e+00 0.00000000e+00 
1.00000000e+00 5.00000000e+00 0.00000000e+00 
2.00000000e+00 5.00000000e+00 0.00000000e+00 
3.00000000e+00 5.00000000e+00 0.00000000e+00 
0.00000000e+00 5.33333349e+00 0.00000000e+00 
1.00000000e+00 5.33333349e+00 0.00000000e+00 
2.00000000e+00 5.33333349e+00 0.00000000e+00 
3.00000000e+00 5.33333349e+00 0.00000000e+00 
0.00000000e+00 5.66666651e+00 0.00000000e+00 
1.00000000e+00 5.66666651e+00 0.00000000e+00 
2.00000000e+00 5.66666651e+00 0.00000000e+00 
3.00000000e+00 5.66666651e+00 0.00000000e+00 
0.00000000e+00 6.00000000e+00 0.00000000e+00 
1.00000000e+00 6.00000000e+00 0.00000000e+00 
2.00000000e+00 6.00000000e+00 0.00000000e+00 
3.00000000e+00 6.00000000e+00 0.00000000e+00 

        </DataArray>
      </Points>
      <Cells>
        <DataArray type="Int32" Name="connectivity" format="ascii">
0 1 5 4
4 5 9 8
8 9 13 12
1 2 6 5
5 6 10 9
9 10 14 13
2 3 7 6
6 7 11 10
10 11 15 14

        </DataArray>
        <DataArray type="Int32" Name="offsets" format="ascii">
4 8 12 16 20 24 28 32 36 
        </DataArray>
        <DataArray type="UInt8" Name="types" format="ascii">
9 9 9 9 9 9 9 9 9 
        </DataArray>
      </Cells>
      <PointData>
        <DataArray type="Float64" Name="u">
          2.00000000e+02 1.97543131e+02 1.97352952e+02 1.91901225e+02 1.55555556e+02 1.51532956e+02 1.51664631e+02 1.43833908e+02 8.88888889e+01 8.34027512e+01 8.45084504e+01 7.22643219e+01 0.00000000e+00 0.00000000e+00 0.00000000e+00 0.00000000e+00 
        </DataArray>
        <DataArray type="Float64" Name="v">
          0.00000000e+00 -3.00788905e+00 -5.15516908e+00 -6.55663175e+00 0.00000000e+00 -1.19425164e+00 -2.62176156e+00 -4.06404551e+00 0.00000000e+00 -1.76209877e+00 -2.80586571e+00 -3.11256248e+00 0.00000000e+00 0.00000000e+00 0.00000000e+00 0.00000000e+00 
        </DataArray>
        <DataArray type="Float64" Name="p">
          -1.97559068e+03 -2.64456807e+03 -3.31354547e+03 -3.98252287e+03 -1.91498589e+03 -2.58861659e+03 -3.26224729e+03 -3.93587799e+03 -1.85438110e+03 -2.53266510e+03 -3.21094910e+03 -3.88923311e+03 -1.79377631e+03 -2.47671361e+03 -3.15965092e+03 -3.84258822e+03 
        </DataArray>
      </PointData>
    </Piece>
    <Piece NumberOfPoints="16" NumberOfCells="9">
      <Points>
        <DataArray type="Float64" NumberOfComponents="3" format="ascii">
          3.00000000e+00 0.00000000e+00 0.00000000e+00 
4.00000000e+00 0.00000000e+00 0.00000000e+00 
5.00000000e+00 0.00000000e+00 0.00000000e+00 
6.00000000e+00 0.00000000e+00 0.00000000e+00 
3.00000000e+00 3.33333343e-01 0.00000000e+00 
4.00000000e+00 3.33333343e-01 0.00000000e+00 
5.00000000e+00 3.33333343e-01 0.00000000e+00 
6.00000000e+00 3.33333343e-01 0.00000000e+00 
3.00000000e+00 6.66666687e-01 0.00000000e+00 
4.00000000e+00 6.66666687e-01 0.00000000e+00 
5.00000000e+00 6.66666687e-01 0.00000000e+00 
6.00000000e+00 6.66666687e-01 0.00000000e+00 
3.00000000e+00 1.00000000e+00 0.00000000e+00 
4.00000000e+00 1.00000000e+00 0.00000000e+00 
5.00000000e+00 1.00000000e+00 0.00000000e+00 
6.00000000e+00 1.00000000e+00 0.00000000e+00 

        </DataArray>
      </Points>
      <Cells>
        <DataArray type="Int32" Name="connectivity" format="ascii">
0 1 5 4
4 5 9 8
8 9 13 12
1 2 6 5
5 6 10 9
9 10 14 13
2 3 7 6
6 7 11 10
10 11 15 14

        </DataArray>
        <DataArray type="Int32" Name="offsets" format="ascii">
4 8 12 16 20 24 28 32 36 
        </DataArray>
        <DataArray type="UInt8" Name="types" format="ascii">
9 9 9 9 9 9 9 9 9 
        </DataArray>
      </Cells>
      <PointData>
        <DataArray type="Float64" Name="u">
          0.00000000e+00 0.00000000e+00 0.00000000e+00 0.00000000e+00 0.00000000e+00 -2.00866818e+00 -4.11232325e+00 -6.18397976e+00 0.00000000e+00 -3.87071947e+00 -7.78089171e+00 -1.27391013e+01 0.00000000e+00 -5.33870739e+00 -1.04614381e+01 -1.69433400e+01 
        </DataArray>
        <DataArray type="Float64" Name="v">
          0.00000000e+00 0.00000000e+00 0.00000000e+00 0.00000000e+00 0.00000000e+00 5.63458936e-01 4.05106346e-01 2.64756762e-01 0.00000000e+00 1.72074262e+00 1.42483769e+00 1.19729648e+00 0.00000000e+00 3.86579755e+00 3.51695942e+00 2.42259011e+00 
        </DataArray>
        <DataArray type="Float64" Name="p">
          -5.20975424e+03 -5.20833478e+03 -5.20691532e+03 -5.20549586e+03 -5.20761069e+03 -5.20477959e+03 -5.20194849e+03 -5.19911739e+03 -5.20546714e+03 -5.20122440e+03 -5.19698167e+03 -5.19273893e+03 -5.20332359e+03 -5.19766922e+03 -5.19201484e+03 -5.18636046e+03 
        </DataArray>
      </PointData>
    </Piece>
    <Piece NumberOfPoints="16" NumberOfCells="9">
      <Points>
        <DataArray type="Float64" NumberOfComponents="3" format="ascii">
          3.00000000e+00 1.00000000e+00 0.00000000e+00 
4.00000000e+00 1.00000000e+00 0.00000000e+00 
5.00000000e+00 1.00000000e+00 0.00000000e+00 
6.00000000e+00 1.00000000e+00 0.00000000e+00 
3.00000000e+00 1.33333337e+00 0.00000000e+00 
4.00000000e+00 1.33333337e+00 0.00000000e+00 
5.00000000e+00 1.33333337e+00 0.00000000e+00 
6.00000000e+00 1.33333337e+00 0.00000000e+00 
3.00000000e+00 1.66666663e+00 0.00000000e+00 
4.00000000e+00 1.66666663e+00 0.00000000e+00 
5.00000000e+00 1.66666663e+00 0.00000000e+00 
6.00000000e+00 1.66666663e+00 0.00000000e+00 
3.00000000e+00 2.00000000e+00 0.00000000e+00 
4.00000000e+00 2.00000000e+00 0.00000000e+00 
5.00000000e+00 2.00000000e+00 0.00000000e+00 
6.00000000e+00 2.00000000e+00 0.00000000e+00 

        </DataArray>
      </Points>
      <Cells>
        <DataArray type="Int32" Name="connectivity" format="ascii">
0 1 5 4
4 5 9 8
8 9 13 12
1 2 6 5
5 6 10 9
9 10 14 13
2 3 7 6
6 7 11 10
10 11 15 14

        </DataArray>
        <DataArray type="Int32" Name="offsets" format="ascii">
4 8 12 16 20 24 28 32 36 
        </DataArray>
        <DataArray type="UInt8" Name="types" format="ascii">
9 9 9 9 9 9 9 9 9 
        </DataArray>
      </Cells>
      <PointData>
        <DataArray type="Float64" Name="u">
          0.00000000e+00 -5.33870739e+00 -1.04614381e+01 -1.69433400e+01 0.00000000e+00 -6.22700641e+00 -1.13572464e+01 -1.72169458e+01 0.00000000e+00 -6.36145949e+00 -9.72160733e+00 -1.28909063e+01 0.00000000e+00 -5.35980890e+00 -4.62127027e+00 -2.88083754e+00 
        </DataArray>
        <DataArray type="Float64" Name="v">
          0.00000000e+00 3.86579755e+00 3.51695942e+00 2.42259011e+00 0.00000000e+00 6.62690037e+00 5.71344501e+00 4.17759504e+00 0.00000000e+00 8.83462005e+00 7.20358212e+00 4.58856144e+00 0.00000000e+00 1.11829693e+01 8.05490169e+00 3.57315927e+00 
        </DataArray>
        <DataArray type="Float64" Name="p">
          -5.19886486e+03 -5.19566966e+03 -5.19247445e+03 -5.18927925e+03 -5.21903900e+03 -5.21802506e+03 -5.21701113e+03 -5.21599719e+03 -5.23921313e+03 -5.24038047e+03 -5.24154780e+03 -5.24271514e+03 -5.25938727e+03 -5.26273587e+03 -5.26608448e+03 -5.26943309e+03 
        </DataArray>
      </PointData>
    </Piece>
    <Piece NumberOfPoints="16" NumberOfCells="9">
      <Points>
        <DataArray type="Float64" NumberOfComponents="3" format="ascii">
          3.00000000e+00 2.00000000e+00 0.00000000e+00 
4.00000000e+00 2.00000000e+00 0.00000000e+00 
5.00000000e+00 2.00000000e+00 0.00000000e+00 
6.00000000e+00 2.00000000e+00 0.00000000e+00 
3.00000000e+00 2.33333325e+00 0.00000000e+00 
4.00000000e+00 2.33333325e+00 0.00000000e+00 
5.00000000e+00 2.33333325e+00 0.00000000e+00 
6.00000000e+00 2.33333325e+00 0.00000000e+00 
3.00000000e+00 2.66666675e+00 0.00000000e+00 
4.00000000e+00 2.66666675e+00 0.00000000e+00 
5.00000000e+00 2.66666675e+00 0.00000000e+00 
6.00000000e+00 2.66666675e+00 0.00000000e+00 
3.00000000e+00 3.00000000e+00 0.00000000e+00 
4.00000000e+00 3.00000000e+00 0.00000000e+00 
5.00000000e+00 3.00000000e+00 0.00000000e+00 
6.00000000e+00 3.00000000e+00 0.00000000e+00 

        </DataArray>
      </Points>
      <Cells>
        <DataArray type="Int32" Name="connectivity" format="ascii">
0 1 5 4
4 5 9 8
8 9 13 12
1 2 6 5
5 6 10 9
9 10 14 13
2 3 7 6
6 7 11 10
10 11 15 14

        </DataArray>
        <DataArray type="Int32" Name="offsets" format="ascii">
4 8 12 16 20 24 28 32 36 
        </DataArray>
        <DataArray type="UInt8" Name="types" format="ascii">
9 9 9 9 9 9 9 9 9 
        </DataArray>
      </Cells>
      <PointData>
        <DataArray type="Float64" Name="u">
          0.00000000e+00 -5.35980890e+00 -4.62127027e+00 -2.88083754e+00 0.00000000e+00 -1.97397551e+00 4.55704325e+00 1.67206232e+01 0.00000000e+00 1.00080802e+01 2.42312923e+01 4.72535502e+01 0.00000000e+00 5.25941875e+01 7.04528546e+01 9.56730526e+01 
        </DataArray>
        <DataArray type="Float64" Name="v">
          0.00000000e+00 1.11829693e+01 8.05490169e+00 3.57315927e+00 0.00000000e+00 1.24078851e+01 5.41383653e+00 -1.58448676e+00 0.00000000e+00 9.79660423e+00 2.97979844e+00 -5.99364379e+00 0.00000000e+00 -9.54796541e-01 -6.32137084e+00 -1.17896373e+01 
        </DataArray>
        <DataArray type="Float64" Name="p">
          -5.24140388e+03 -5.27075573e+03 -5.30010757e+03 -5.32945941e+03 -5.33307547e+03 -5.30465587e+03 -5.27623627e+03 -5.24781667e+03 -5.42474706e+03 -5.33855602e+03 -5.25236498e+03 -5.16617393e+03 -5.51641865e+03 -5.37245616e+03 -5.22849368e+03 -5.08453120e+03 
        </DataArray>
      </PointData>
    </Piece>
    <Piece NumberOfPoints="16" NumberOfCells="9">
      <Points>
        <DataArray type="Float64" NumberOfComponents="3" format="ascii">
          3.00000000e+00 3.00000000e+00 0.00000000e+00 
4.00000000e+00 3.00000000e+00 0.00000000e+00 
5.00000000e+00 3.00000000e+00 0.00000000e+00 
6.00000000e+00 3.00000000e+00 0.00000000e+00 
3.00000000e+00 3.33333325e+00 0.00000000e+00 
4.00000000e+00 3.33333325e+00 0.00000000e+00 
5.00000000e+00 3.33333325e+00 0.00000000e+00 
6.00000000e+00 3.33333325e+00 0.00000000e+00 
3.00000000e+00 3.66666675e+00 0.00000000e+00 
4.00000000e+00 3.66666675e+00 0.00000000e+00 
5.00000000e+00 3.66666675e+00 0.00000000e+00 
6.00000000e+00 3.66666675e+00 0.00000000e+00 
3.00000000e+00 4.00000000e+00 0.00000000e+00 
4.00000000e+00 4.00000000e+00 0.00000000e+00 
5.00000000e+00 4.00000000e+00 0.00000000e+00 
6.00000000e+00 4.00000000e+00 0.00000000e+00 

        </DataArray>
      </Points>
      <Cells>
        <DataArray type="Int32" Name="connectivity" format="ascii">
0 1 5 4
4 5 9 8
8 9 13 12
1 2 6 5
5 6 10 9
9 10 14 13
2 3 7 6
6 7 11 10
10 11 15 14

        </DataArray>
        <DataArray type="Int32" Name="offsets" format="ascii">
4 8 12 16 20 24 28 32 36 
        </DataArray>
        <DataArray type="UInt8" Name="types" format="ascii">
9 9 9 9 9 9 9 9 9 
        </DataArray>
      </Cells>
      <PointData>
        <DataArray type="Float64" Name="u">
          0.00000000e+00 5.25941875e+01 7.04528546e+01 9.56730526e+01 1.07125930e+02 1.15551164e+02 1.31021387e+02 1.45601560e+02 1.67063267e+02 1.70688584e+02 1.78859588e+02 1.86058693e+02 2.07726648e+02 2.06012982e+02 2.10552195e+02 2.11069340e+02 
        </DataArray>
        <DataArray type="Float64" Name="v">
          0.00000000e+00 -9.54796541e-01 -6.32137084e+00 -1.17896373e+01 -4.42803865e+00 -1.20987028e+01 -1.54084780e+01 -1.66919804e+01 -4.43876318e+00 -1.09079711e+01 -1.50594970e+01 -1.74068749e+01 -7.28519745e+00 -1.34464685e+01 -1.80386083e+01 -2.23540152e+01 
        </DataArray>
        <DataArray type="Float64" Name="p">
          -5.64638513e+03 -5.45366352e+03 -5.26094191e+03 -5.06822029e+03 -5.26054241e+03 -5.18437251e+03 -5.10820261e+03 -5.03203271e+03 -4.87469970e+03 -4.91508151e+03 -4.95546332e+03 -4.99584513e+03 -4.48885698e+03 -4.64579050e+03 -4.80272402e+03 -4.95965755e+03 
        </DataArray>
      </PointData>
    </Piece>
    <Piece NumberOfPoints="16" NumberOfCells="9">
      <Points>
        <DataArray type="Float64" NumberOfComponents="3" format="ascii">
          3.00000000e+00 4.00000000e+00 0.00000000e+00 
4.00000000e+00 4.00000000e+00 0.00000000e+00 
5.00000000e+00 4.00000000e+00 0.00000000e+00 
6.00000000e+00 4.00000000e+00 0.00000000e+00 
3.00000000e+00 4.33333349e+00 0.00000000e+00 
4.00000000e+00 4.33333349e+00 0.00000000e+00 
5.00000000e+00 4.33333349e+00 0.00000000e+00 
6.00000000e+00 4.33333349e+00 0.00000000e+00 
3.00000000e+00 4.66666651e+00 0.00000000e+00 
4.00000000e+00 4.66666651e+00 0.00000000e+00 
5.00000000e+00 4.66666651e+00 0.00000000e+00 
6.00000000e+00 4.66666651e+00 0.00000000e+00 
3.00000000e+00 5.00000000e+00 0.00000000e+00 
4.00000000e+00 5.00000000e+00 0.00000000e+00 
5.00000000e+00 5.00000000e+00 0.00000000e+00 
6.00000000e+00 5.00000000e+00 0.00000000e+00 

        </DataArray>
      </Points>
      <Cells>
        <DataArray type="Int32" Name="connectivity" format="ascii">
0 1 5 4
4 5 9 8
8 9 13 12
1 2 6 5
5 6 10 9
9 10 14 13
2 3 7 6
6 7 11 10
10 11 15 14

        </DataArray>
        <DataArray type="Int32" Name="offsets" format="ascii">
4 8 12 16 20 24 28 32 36 
        </DataArray>
        <DataArray type="UInt8" Name="types" format="ascii">
9 9 9 9 9 9 9 9 9 
        </DataArray>
      </Cells>
      <PointData>
        <DataArray type="Float64" Name="u">
          2.07726648e+02 2.06012982e+02 2.10552195e+02 2.11069340e+02 2.24195918e+02 2.21167010e+02 2.19952349e+02 2.14968141e+02 2.19098073e+02 2.12778620e+02 2.07701535e+02 1.97184620e+02 1.91901225e+02 1.84184504e+02 1.76088283e+02 1.61961859e+02 
        </DataArray>
        <DataArray type="Float64" Name="v">
          -7.28519745e+00 -1.34464685e+01 -1.80386083e+01 -2.23540152e+01 -7.56865247e+00 -1.19914083e+01 -1.69807423e+01 -2.18552581e+01 -7.55512950e+00 -1.20539732e+01 -1.61945583e+01 -2.05370386e+01 -6.55663175e+00 -8.39216354e+00 -1.20555239e+01 -1.61879610e+01 
        </DataArray>
        <DataArray type="Float64" Name="p">
          -4.42313124e+03 -4.57835223e+03 -4.73357323e+03 -4.88879423e+03 -4.09751911e+03 -4.23665088e+03 -4.37578265e+03 -4.51491442e+03 -3.77190699e+03 -3.89494953e+03 -4.01799207e+03 -4.14103461e+03 -3.44629487e+03 -3.55324818e+03 -3.66020149e+03 -3.76715480e+03 
        </DataArray>
      </PointData>
    </Piece>
    <Piece NumberOfPoints="16" NumberOfCells="9">
      <Points>
        <DataArray type="Float64" NumberOfComponents="3" format="ascii">
          3.00000000e+00 5.00000000e+00 0.00000000e+00 
4.00000000e+00 5.00000000e+00 0.00000000e+00 
5.00000000e+00 5.00000000e+00 0.00000000e+00 
6.00000000e+00 5.00000000e+00 0.00000000e+00 
3.00000000e+00 5.33333349e+00 0.00000000e+00 
4.00000000e+00 5.33333349e+00 0.00000000e+00 
5.00000000e+00 5.33333349e+00 0.00000000e+00 
6.00000000e+00 5.33333349e+00 0.00000000e+00 
3.00000000e+00 5.66666651e+00 0.00000000e+00 
4.00000000e+00 5.66666651e+00 0.00000000e+00 
5.00000000e+00 5.66666651e+00 0.00000000e+00 
6.00000000e+00 5.66666651e+00 0.00000000e+00 
3.00000000e+00 6.00000000e+00 0.00000000e+00 
4.00000000e+00 6.00000000e+00 0.00000000e+00 
5.00000000e+00 6.00000000e+00 0.00000000e+00 
6.00000000e+00 6.00000000e+00 0.00000000e+00 

        </DataArray>
      </Points>
      <Cells>
        <DataArray type="Int32" Name="connectivity" format="ascii">
0 1 5 4
4 5 9 8
8 9 13 12
1 2 6 5
5 6 10 9
9 10 14 13
2 3 7 6
6 7 11 10
10 11 15 14

        </DataArray>
        <DataArray type="Int32" Name="offsets" format="ascii">
4 8 12 16 20 24 28 32 36 
        </DataArray>
        <DataArray type="UInt8" Name="types" format="ascii">
9 9 9 9 9 9 9 9 9 
        </DataArray>
      </Cells>
      <PointData>
        <DataArray type="Float64" Name="u">
          1.91901225e+02 1.84184504e+02 1.76088283e+02 1.61961859e+02 1.43833908e+02 1.33799761e+02 1.24583564e+02 1.09980956e+02 7.22643219e+01 7.06635966e+01 6.50918652e+01 5.77975574e+01 0.00000000e+00 2.54213605e+01 2.35724785e+01 2.84047779e+01 
        </DataArray>
        <DataArray type="Float64" Name="v">
          -6.55663175e+00 -8.39216354e+00 -1.20555239e+01 -1.61879610e+01 -4.06404551e+00 -3.73931943e+00 -5.71917602e+00 -9.67300653e+00 -3.11256248e+00 -3.69335415e+00 -6.61940650e+00 -8.65586247e+00 0.00000000e+00 -6.20522464e+00 -4.55750527e+00 -2.96821952e+00 
        </DataArray>
        <DataArray type="Float64" Name="p">
          -3.46507615e+03 -3.52177250e+03 -3.57846886e+03 -3.63516522e+03 -3.50650291e+03 -3.50237342e+03 -3.49824394e+03 -3.49411445e+03 -3.54792967e+03 -3.48297434e+03 -3.41801901e+03 -3.35306368e+03 -3.58935643e+03 -3.46357526e+03 -3.33779408e+03 -3.21201291e+03 
        </DataArray>
      </PointData>
    </Piece>
    <Piece NumberOfPoints="16" NumberOfCells="9">
      <Points>
        <DataArray type="Float64" NumberOfComponents="3" format="ascii">
          3.00000000e+00 6.00000000e+00 0.00000000e+00 
4.00000000e+00 6.00000000e+00 0.00000000e+00 
5.00000000e+00 6.00000000e+00 0.00000000e+00 
6.00000000e+00 6.00000000e+00 0.00000000e+00 
3.00000000e+00 6.33333349e+00 0.00000000e+00 
4.00000000e+00 6.33333349e+00 0.00000000e+00 
5.00000000e+00 6.33333349e+00 0.00000000e+00 
6.00000000e+00 6.33333349e+00 0.00000000e+00 
3.00000000e+00 6.66666651e+00 0.00000000e+00 
4.00000000e+00 6.66666651e+00 0.00000000e+00 
5.00000000e+00 6.66666651e+00 0.00000000e+00 
6.00000000e+00 6.66666651e+00 0.00000000e+00 
3.00000000e+00 7.00000000e+00 0.00000000e+00 
4.00000000e+00 7.00000000e+00 0.00000000e+00 
5.00000000e+00 7.00000000e+00 0.00000000e+00 
6.00000000e+00 7.00000000e+00 0.00000000e+00 

        </DataArray>
      </Points>
      <Cells>
        <DataArray type="Int32" Name="connectivity" format="ascii">
0 1 5 4
4 5 9 8
8 9 13 12
1 2 6 5
5 6 10 9
9 10 14 13
2 3 7 6
6 7 11 10
10 11 15 14

        </DataArray>
        <DataArray type="Int32" Name="offsets" format="ascii">
4 8 12 16 20 24 28 32 36 
        </DataArray>
        <DataArray type="UInt8" Name="types" format="ascii">
9 9 9 9 9 9 9 9 9 
        </DataArray>
      </Cells>
      <PointData>
        <DataArray type="Float64" Name="u">
          0.00000000e+00 2.54213605e+01 2.35724785e+01 2.84047779e+01 0.00000000e+00 3.10035463e+00 4.53739034e+00 8.37471422e+00 0.00000000e+00 -3.15482925e+00 -3.48918489e+00 -3.22430569e+00 0.00000000e+00 -4.90999337e+00 -7.05787394e+00 -9.57762256e+00 
        </DataArray>
        <DataArray type="Float64" Name="v">
          0.00000000e+00 -6.20522464e+00 -4.55750527e+00 -2.96821952e+00 0.00000000e+00 -1.00996756e+01 -6.32378400e+00 -2.75584785e+00 0.00000000e+00 -1.02281835e+01 -5.92008857e+00 -3.12656785e+00 0.00000000e+00 -8.52643432e+00 -5.87379754e+00 -3.48184069e+00 
        </DataArray>
        <DataArray type="Float64" Name="p">
          -3.57992367e+03 -3.49999124e+03 -3.42005880e+03 -3.34012636e+03 -3.52126242e+03 -3.46775871e+03 -3.41425499e+03 -3.36075128e+03 -3.46260116e+03 -3.43552617e+03 -3.40845119e+03 -3.38137620e+03 -3.40393990e+03 -3.40329364e+03 -3.40264738e+03 -3.40200112e+03 
        </DataArray>
      </PointData>
    </Piece>
    <Piece NumberOfPoints="16" NumberOfCells="9">
      <Points>
        <DataArray type="Float64" NumberOfComponents="3" format="ascii">
          3.00000000e+00 7.00000000e+00 0.00000000e+00 
4.00000000e+00 7.00000000e+00 0.00000000e+00 
5.00000000e+00 7.00000000e+00 0.00000000e+00 
6.00000000e+00 7.00000000e+00 0.00000000e+00 
3.00000000e+00 7.33333349e+00 0.00000000e+00 
4.00000000e+00 7.33333349e+00 0.00000000e+00 
5.00000000e+00 7.33333349e+00 0.00000000e+00 
6.00000000e+00 7.33333349e+00 0.00000000e+00 
3.00000000e+00 7.66666651e+00 0.00000000e+00 
4.00000000e+00 7.66666651e+00 0.00000000e+00 
5.00000000e+00 7.66666651e+00 0.00000000e+00 
6.00000000e+00 7.66666651e+00 0.00000000e+00 
3.00000000e+00 8.00000000e+00 0.00000000e+00 
4.00000000e+00 8.00000000e+00 0.00000000e+00 
5.00000000e+00 8.00000000e+00 0.00000000e+00 
6.00000000e+00 8.00000000e+00 0.00000000e+00 

        </DataArray>
      </Points>
      <Cells>
        <DataArray type="Int32" Name="connectivity" format="ascii">
0 1 5 4
4 5 9 8
8 9 13 12
1 2 6 5
5 6 10 9
9 10 14 13
2 3 7 6
6 7 11 10
10 11 15 14

        </DataArray>
        <DataArray type="Int32" Name="offsets" format="ascii">
4 8 12 16 20 24 28 32 36 
        </DataArray>
        <DataArray type="UInt8" Name="types" format="ascii">
9 9 9 9 9 9 9 9 9 
        </DataArray>
      </Cells>
      <PointData>
        <DataArray type="Float64" Name="u">
          0.00000000e+00 -4.90999337e+00 -7.05787394e+00 -9.57762256e+00 0.00000000e+00 -5.15256821e+00 -8.43904967e+00 -1.19869590e+01 0.00000000e+00 -4.68800295e+00 -8.24355558e+00 -1.21090110e+01 0.00000000e+00 -3.83737411e+00 -7.00041463e+00 -1.06051849e+01 
        </DataArray>
        <DataArray type="Float64" Name="v">
          0.00000000e+00 -8.52643432e+00 -5.87379754e+00 -3.48184069e+00 0.00000000e+00 -6.34728735e+00 -4.68170293e+00 -2.99327520e+00 0.00000000e+00 -4.61567594e+00 -3.56605467e+00 -2.34861293e+00 0.00000000e+00 -2.62709688e+00 -2.16699656e+00 -1.47668344e+00 
        </DataArray>
        <DataArray type="Float64" Name="p">
          -3.40753223e+03 -3.39865557e+03 -3.38977891e+03 -3.38090226e+03 -3.39220974e+03 -3.38528166e+03 -3.37835357e+03 -3.37142549e+03 -3.37688726e+03 -3.37190775e+03 -3.36692823e+03 -3.36194872e+03 -3.36156478e+03 -3.35853383e+03 -3.35550289e+03 -3.35247195e+03 
        </DataArray>
      </PointData>
    </Piece>
    <Piece NumberOfPoints="16" NumberOfCells="9">
      <Points>
        <DataArray type="Float64" NumberOfComponents="3" format="ascii">
          3.00000000e+00 8.00000000e+00 0.00000000e+00 
4.00000000e+00 8.00000000e+00 0.00000000e+00 
5.00000000e+00 8.00000000e+00 0.00000000e+00 
6.00000000e+00 8.00000000e+00 0.00000000e+00 
3.00000000e+00 8.33333302e+00 0.00000000e+00 
4.00000000e+00 8.33333302e+00 0.00000000e+00 
5.00000000e+00 8.33333302e+00 0.00000000e+00 
6.00000000e+00 8.33333302e+00 0.00000000e+00 
3.00000000e+00 8.66666698e+00 0.00000000e+00 
4.00000000e+00 8.66666698e+00 0.00000000e+00 
5.00000000e+00 8.66666698e+00 0.00000000e+00 
6.00000000e+00 8.66666698e+00 0.00000000e+00 
3.00000000e+00 9.00000000e+00 0.00000000e+00 
4.00000000e+00 9.00000000e+00 0.00000000e+00 
5.00000000e+00 9.00000000e+00 0.00000000e+00 
6.00000000e+00 9.00000000e+00 0.00000000e+00 

        </DataArray>
      </Points>
      <Cells>
        <DataArray type="Int32" Name="connectivity" format="ascii">
0 1 5 4
4 5 9 8
8 9 13 12
1 2 6 5
5 6 10 9
9 10 14 13
2 3 7 6
6 7 11 10
10 11 15 14

        </DataArray>
        <DataArray type="Int32" Name="offsets" format="ascii">
4 8 12 16 20 24 28 32 36 
        </DataArray>
        <DataArray type="UInt8" Name="types" format="ascii">
9 9 9 9 9 9 9 9 9 
        </DataArray>
      </Cells>
      <PointData>
        <DataArray type="Float64" Name="u">
          0.00000000e+00 -3.83737411e+00 -7.00041463e+00 -1.06051849e+01 0.00000000e+00 -2.74682231e+00 -5.05365902e+00 -7.96215030e+00 0.00000000e+00 -1.45947123e+00 -2.64678749e+00 -4.36175182e+00 0.00000000e+00 0.00000000e+00 0.00000000e+00 0.00000000e+00 
        </DataArray>
        <DataArray type="Float64" Name="v">
          0.00000000e+00 -2.62709688e+00 -2.16699656e+00 -1.47668344e+00 0.00000000e+00 -1.15703033e+00 -1.01388713e+00 -6.73348231e-01 0.00000000e+00 -3.60958024e-01 -3.43801980e-01 -2.21759645e-01 0.00000000e+00 0.00000000e+00 0.00000000e+00 0.00000000e+00 
        </DataArray>
        <DataArray type="Float64" Name="p">
          -3.36504057e+03 -3.36097782e+03 -3.35691507e+03 -3.35285231e+03 -3.36805457e+03 -3.36376564e+03 -3.35947670e+03 -3.35518777e+03 -3.37106858e+03 -3.36655346e+03 -3.36203834e+03 -3.35752323e+03 -3.37408258e+03 -3.36934128e+03 -3.36459998e+03 -3.35985868e+03 
        </DataArray>
      </PointData>
    </Piece>
    <Piece NumberOfPoints="16" NumberOfCells="9">
      <Points>
        <DataArray type="Float64" NumberOfComponents="3" format="ascii">
          6.00000000e+00 0.00000000e+00 0.00000000e+00 
7.00000000e+00 0.00000000e+00 0.00000000e+00 
8.00000000e+00 0.00000000e+00 0.00000000e+00 
9.00000000e+00 0.00000000e+00 0.00000000e+00 
6.00000000e+00 3.33333343e-01 0.00000000e+00 
7.00000000e+00 3.33333343e-01 0.00000000e+00 
8.00000000e+00 3.33333343e-01 0.00000000e+00 
9.00000000e+00 3.33333343e-01 0.00000000e+00 
6.00000000e+00 6.66666687e-01 0.00000000e+00 
7.00000000e+00 6.66666687e-01 0.00000000e+00 
8.00000000e+00 6.66666687e-01 0.00000000e+00 
9.00000000e+00 6.66666687e-01 0.00000000e+00 
6.00000000e+00 1.00000000e+00 0.00000000e+00 
7.00000000e+00 1.00000000e+00 0.00000000e+00 
8.00000000e+00 1.00000000e+00 0.00000000e+00 
9.00000000e+00 1.00000000e+00 0.00000000e+00 

        </DataArray>
      </Points>
      <Cells>
        <DataArray type="Int32" Name="connectivity" format="ascii">
0 1 5 4
4 5 9 8
8 9 13 12
1 2 6 5
5 6 10 9
9 10 14 13
2 3 7 6
6 7 11 10
10 11 15 14

        </DataArray>
        <DataArray type="Int32" Name="offsets" format="ascii">
4 8 12 16 20 24 28 32 36 
        </DataArray>
        <DataArray type="UInt8" Name="types" format="ascii">
9 9 9 9 9 9 9 9 9 
        </DataArray>
      </Cells>
      <PointData>
        <DataArray type="Float64" Name="u">