<?xml version="1.0"?>
<VTKFile type="UnstructuredGrid" version="0.1" byte_order="LittleEndian">
  <UnstructuredGrid>
    <Piece NumberOfPoints="16" NumberOfCells="9">
      <Points>
        <DataArray type="Float64" NumberOfComponents="3" format="ascii">
          0.00000000e+00 3.00000000e+00 0.00000000e+00 
1.00000000e+00 3.00000000e+00 0.00000000e+00 
2.00000000e+00 3.00000000e+00 0.00000000e+00 
3.00000000e+00 3.00000000e+00 0.00000000e+00 
0.00000000e+00 3.33333325e+00 0.00000000e+00 
1.00000000e+00 3.33333325e+00 0.00000000e+00 
2.00000000e+00 3.33333325e+00 0.00000000e+00 
3.00000000e+00 3.33333325e+00 0.00000000e+00 
0.00000000e+00 3.66666675e+00 0.00000000e+00 
1.00000000e+00 3.66666675e+00 0.00000000e+00 
2.00000000e+00 3.66666675e+00 0.00000000e+00 
3.00000000e+00 3.66666675e+00 0.00000000e+00 
0.00000000e+00 4.00000000e+00 0.00000000e+00 
1.00000000e+00 4.00000000e+00 0.00000000e+00 
2.00000000e+00 4.00000000e+00 0.00000000e+00 
3.00000000e+00 4.00000000e+00 0.00000000e+00 

        </DataArray>
      </Points>
      <Cells>
        <DataArray type="Int32" Name="connectivity" format="ascii">
0 1 5 4
4 5 9 8
8 9 13 12
1 2 6 5
5 6 10 9
9 10 14 13
2 3 7 6
6 7 11 10
10 11 15 14

        </DataArray>
        <DataArray type="Int32" Name="offsets" format="ascii">
4 8 12 16 20 24 28 32 36 
        </DataArray>
        <DataArray type="UInt8" Name="types" format="ascii">
9 9 9 9 9 9 9 9 9 
        </DataArray>
      </Cells>
      <PointData>
        <DataArray type="Float64" Name="u">
          0.00000000e+00 0.00000000e+00 0.00000000e+00 0.00000000e+00 8.88888889e+01 9.50795341e+01 9.24145010e+01 1.06122546e+02 1.55555556e+02 1.60055199e+02 1.58943263e+02 1.66871691e+02 2.00000000e+02 2.02524591e+02 2.02206139e+02 2.07546649e+02 
        </DataArray>
        <DataArray type="Float64" Name="v">
          0.00000000e+00 0.00000000e+00 0.00000000e+00 0.00000000e+00 0.00000000e+00 -1.77570837e+00 -2.55795315e+00 -4.41544027e+00 0.00000000e+00 -1.14201686e+00 -2.69146969e+00 -4.42282565e+00 0.00000000e+00 -2.96931883e+00 -4.97589472e+00 -7.22970123e+00 
        </DataArray>
        <DataArray type="Float64" Name="p">
          -2.50441067e+03 -3.08511599e+03 -3.66582130e+03 -4.24652661e+03 -2.45512848e+03 -3.02960030e+03 -3.60407212e+03 -4.17854394e+03 -2.40584629e+03 -2.97408462e+03 -3.54232294e+03 -4.11056127e+03 -2.35656410e+03 -2.91856893e+03 -3.48057376e+03 -4.04257860e+03 
        </DataArray>
      </PointData>
    </Piece>
    <Piece NumberOfPoints="16" NumberOfCells="9">
      <Points>
        <DataArray type="Float64" NumberOfComponents="3" format="ascii">
          0.00000000e+00 4.00000000e+00 0.00000000e+00 
1.00000000e+00 4.00000000e+00 0.00000000e+00 
2.00000000e+00 4.00000000e+00 0.00000000e+00 
3.00000000e+00 4.00000000e+00 0.00000000e+00 
0.00000000e+00 4.33333349e+00 0.00000000e+00 
1.00000000e+00 4.33333349e+00 0.00000000e+00 
2.00000000e+00 4.33333349e+00 0.00000000e+00 
3.00000000e+00 4.33333349e+00 0.00000000e+00 
0.00000000e+00 4.66666651e+00 0.00000000e+00 
1.00000000e+00 4.66666651e+00 0.00000000e+00 
2.00000000e+00 4.66666651e+00 0.00000000e+00 
3.00000000e+00 4.66666651e+00 0.00000000e+00 
0.00000000e+00 5.00000000e+00 0.00000000e+00 
1.00000000e+00 5.00000000e+00 0.00000000e+00 
2.00000000e+00 5.00000000e+00 0.00000000e+00 
3.00000000e+00 5.00000000e+00 0.00000000e+00 

        </DataArray>
      </Points>
      <Cells>
        <DataArray type="Int32" Name="connectivity" format="ascii">
0 1 5 4
4 5 9 8
8 9 13 12
1 2 6 5
5 6 10 9
9 10 14 13
2 3 7 6
6 7 11 10
10 11 15 14

        </DataArray>
        <DataArray type="Int32" Name="offsets" format="ascii">
4 8 12 16 20 24 28 32 36 
        </DataArray>
        <DataArray type="UInt8" Name="types" format="ascii">
9 9 9 9 9 9 9 9 9 
        </DataArray>
      </Cells>
      <PointData>
        <DataArray type="Float64" Name="u">
          2.00000000e+02 2.02524591e+02 2.02206139e+02 2.07546649e+02 2.22222222e+02 2.23099268e+02 2.22913285e+02 2.24221186e+02 2.22222222e+02 2.21283951e+02 2.20939817e+02 2.19145013e+02 2.00000000e+02 1.97558047e+02 1.97342218e+02 1.92020827e+02 
        </DataArray>
        <DataArray type="Float64" Name="v">
          0.00000000e+00 -2.96931883e+00 -4.97589472e+00 -7.22970123e+00 0.00000000e+00 -3.37817309e+00 -5.82791809e+00 -7.46609969e+00 0.00000000e+00 -3.38661483e+00 -5.76974160e+00 -7.47602812e+00 0.00000000e+00 -2.83010370e+00 -4.96478733e+00 -6.45824848e+00 
        </DataArray>
        <DataArray type="Float64" Name="p">
          -2.33093899e+03 -2.89044810e+03 -3.44995721e+03 -4.00946632e+03 -2.05901059e+03 -2.67613730e+03 -3.29326400e+03 -3.91039070e+03 -1.78708220e+03 -2.46182649e+03 -3.13657078e+03 -3.81131507e+03 -1.51515381e+03 -2.24751569e+03 -2.97987757e+03 -3.71223945e+03 
        </DataArray>
      </PointData>
    </Piece>
    <Piece NumberOfPoints="16" NumberOfCells="9">
      <Points>
        <DataArray type="Float64" NumberOfComponents="3" format="ascii">
          0.00000000e+00 5.00000000e+00 0.00000000e+00 
1.00000000e+00 5.00000000e+00 0.00000000e+00 
2.00000000e+00 5.00000000e+00 0.00000000e+00 
3.00000000e+00 5.00000000e+00 0.00000000e+00 
0.00000000e+00 5.33333349e+00 0.00000000e+00 
1.00000000e+00 5.33333349e+00 0.00000000e+00 
2.00000000e+00 5.33333349e+00 0.00000000e+00 
3.00000000e+00 5.33333349e+00 0.00000000e+00 
0.00000000e+00 5.66666651e+00 0.00000000e+00 
1.00000000e+00 5.66666651e+00 0.00000000e+00 
2.00000000e+00 5.66666651e+00 0.00000000e+00 
3.00000000e+00 5.66666651e+00 0.00000000e+00 
0.00000000e+00 6.00000000e+00 0.00000000e+00 
1.00000000e+00 6.00000000e+00 0.00000000e+00 
2.00000000e+00 6.00000000e+00 0.00000000e+00 
3.00000000e+00 6.00000000e+00 0.00000000e+00 

        </DataArray>
      </Points>
      <Cells>
        <DataArray type="Int32" Name="connectivity" format="ascii">
0 1 5 4
4 5 9 8
8 9 13 12
1 2 6 5
5 6 10 9
9 10 14 13
2 3 7 6
6 7 11 10
10 11 15 14

        </DataArray>
        <DataArray type="Int32" Name="offsets" format="ascii">
4 8 12 16 20 24 28 32 36 
        </DataArray>
        <DataArray type="UInt8" Name="types" format="ascii">
9 9 9 9 9 9 9 9 9 
        </DataArray>
      </Cells>
      <PointData>
        <DataArray type="Float64" Name="u">
          2.00000000e+02 1.97558047e+02 1.97342218e+02 1.92020827e+02 1.55555556e+02 1.51623977e+02 1.51798086e+02 1.44041421e+02 8.88888889e+01 8.38630359e+01 8.48987526e+01 7.32198266e+01 0.00000000e+00 0.00000000e+00 0.00000000e+00 0.00000000e+00 
        </DataArray>
        <DataArray type="Float64" Name="v">
          0.00000000e+00 -2.83010370e+00 -4.96478733e+00 -6.45824848e+00 0.00000000e+00 -1.12824754e+00 -2.54281457e+00 -4.03136958e+00 0.00000000e+00 -1.56646598e+00 -2.61964293e+00 -2.96336138e+00 0.00000000e+00 0.00000000e+00 0.00000000e+00 0.00000000e+00 
        </DataArray>
        <DataArray type="Float64" Name="p">
          -1.49530765e+03 -2.21763151e+03 -2.93995538e+03 -3.66227925e+03 -1.44043789e+03 -2.16421328e+03 -2.88798866e+03 -3.61176405e+03 -1.38556813e+03 -2.11079504e+03 -2.83602194e+03 -3.56124885e+03 -1.33069837e+03 -2.05737680e+03 -2.78405522e+03 -3.51073365e+03 
        </DataArray>
      </PointData>
    </Piece>
    <Piece NumberOfPoints="16" NumberOfCells="9">
      <Points>
        <DataArray type="Float64" NumberOfComponents="3" format="ascii">
          3.00000000e+00 0.00000000e+00 0.00000000e+00 
4.00000000e+00 0.00000000e+00 0.00000000e+00 
5.00000000e+00 0.00000000e+00 0.00000000e+00 
6.00000000e+00 0.00000000e+00 0.00000000e+00 
3.00000000e+00 3.33333343e-01 0.00000000e+00 
4.00000000e+00 3.33333343e-01 0.00000000e+00 
5.00000000e+00 3.33333343e-01 0.00000000e+00 
6.00000000e+00 3.33333343e-01 0.00000000e+00 
3.00000000e+00 6.66666687e-01 0.00000000e+00 
4.00000000e+00 6.66666687e-01 0.00000000e+00 
5.00000000e+00 6.66666687e-01 0.00000000e+00 
6.00000000e+00 6.66666687e-01 0.00000000e+00 
3.00000000e+00 1.00000000e+00 0.00000000e+00 
4.00000000e+00 1.00000000e+00 0.00000000e+00 
5.00000000e+00 1.00000000e+00 0.00000000e+00 
6.00000000e+00 1.00000000e+00 0.00000000e+00 

        </DataArray>
      </Points>
      <Cells>
        <DataArray type="Int32" Name="connectivity" format="ascii">
0 1 5 4
4 5 9 8
8 9 13 12
1 2 6 5
5 6 10 9
9 10 14 13
2 3 7 6
6 7 11 10
10 11 15 14

        </DataArray>
        <DataArray type="Int32" Name="offsets" format="ascii">
4 8 12 16 20 24 28 32 36 
        </DataArray>
        <DataArray type="UInt8" Name="types" format="ascii">
9 9 9 9 9 9 9 9 9 
        </DataArray>
      </Cells>
      <PointData>
        <DataArray type="Float64" Name="u">
          0.00000000e+00 0.00000000e+00 0.00000000e+00 0.00000000e+00 0.00000000e+00 -2.27639781e+00 -4.52503006e+00 -7.00283694e+00 0.00000000e+00 -4.29555009e+00 -8.46150397e+00 -1.40852940e+01 0.00000000e+00 -5.80641580e+00 -1.12162643e+01 -1.82982468e+01 
        </DataArray>
        <DataArray type="Float64" Name="v">
          0.00000000e+00 0.00000000e+00 0.00000000e+00 0.00000000e+00 0.00000000e+00 6.25537177e-01 4.81894267e-01 3.35966579e-01 0.00000000e+00 1.89563108e+00 1.63332575e+00 1.31257645e+00 0.00000000e+00 4.22095707e+00 3.96894358e+00 2.61784461e+00 
        </DataArray>
        <DataArray type="Float64" Name="p">
          -4.93351293e+03 -4.92850335e+03 -4.92349377e+03 -4.91848419e+03 -4.93070345e+03 -4.92416263e+03 -4.91762181e+03 -4.91108099e+03 -4.92789397e+03 -4.91982191e+03 -4.91174985e+03 -4.90367779e+03 -4.92508449e+03 -4.91548119e+03 -4.90587789e+03 -4.89627459e+03 
        </DataArray>
      </PointData>
    </Piece>
    <Piece NumberOfPoints="16" NumberOfCells="9">
      <Points>
        <DataArray type="Float64" NumberOfComponents="3" format="ascii">
          3.00000000e+00 1.00000000e+00 0.00000000e+00 
4.00000000e+00 1.00000000e+00 0.00000000e+00 
5.00000000e+00 1.00000000e+00 0.00000000e+00 
6.00000000e+00 1.00000000e+00 0.00000000e+00 
3.00000000e+00 1.33333337e+00 0.00000000e+00 
4.00000000e+00 1.33333337e+00 0.00000000e+00 
5.00000000e+00 1.33333337e+00 0.00000000e+00 
6.00000000e+00 1.33333337e+00 0.00000000e+00 
3.00000000e+00 1.66666663e+00 0.00000000e+00 
4.00000000e+00 1.66666663e+00 0.00000000e+00 
5.00000000e+00 1.66666663e+00 0.00000000e+00 
6.00000000e+00 1.66666663e+00 0.00000000e+00 
3.00000000e+00 2.00000000e+00 0.00000000e+00 
4.00000000e+00 2.00000000e+00 0.00000000e+00 
5.00000000e+00 2.00000000e+00 0.00000000e+00 
6.00000000e+00 2.00000000e+00 0.00000000e+00 

        </DataArray>
      </Points>
      <Cells>
        <DataArray type="Int32" Name="connectivity" format="ascii">
0 1 5 4
4 5 9 8
8 9 13 12
1 2 6 5
5 6 10 9
9 10 14 13
2 3 7 6
6 7 11 10
10 11 15 14

        </DataArray>
        <DataArray type="Int32" Name="offsets" format="ascii">
4 8 12 16 20 24 28 32 36 
        </DataArray>
        <DataArray type="UInt8" Name="types" format="ascii">
9 9 9 9 9 9 9 9 9 
        </DataArray>
      </Cells>
      <PointData>
        <DataArray type="Float64" Name="u">
          0.00000000e+00 -5.80641580e+00 -1.12162643e+01 -1.82982468e+01 0.00000000e+00 -6.62120719e+00 -1.19591737e+01 -1.81425263e+01 0.00000000e+00 -6.57472416e+00 -1.00003630e+01 -1.30074205e+01 0.00000000e+00 -5.26600040e+00 -4.48299972e+00 -1.93765975e+00 
        </DataArray>
        <DataArray type="Float64" Name="v">
          0.00000000e+00 4.22095707e+00 3.96894358e+00 2.61784461e+00 0.00000000e+00 7.14887393e+00 6.35360827e+00 4.32428753e+00 0.00000000e+00 9.47008318e+00 7.94329958e+00 4.63888388e+00 0.00000000e+00 1.18556550e+01 8.69179812e+00 3.44043619e+00 
        </DataArray>
        <DataArray type="Float64" Name="p">
          -4.91990577e+03 -4.91362123e+03 -4.90733669e+03 -4.90105215e+03 -4.94162986e+03 -4.93947165e+03 -4.93731344e+03 -4.93515523e+03 -4.96335394e+03 -4.96532206e+03 -4.96729018e+03 -4.96925830e+03 -4.98507803e+03 -4.99117248e+03 -4.99726693e+03 -5.00336138e+03 
        </DataArray>
      </PointData>
    </Piece>
    <Piece NumberOfPoints="16" NumberOfCells="9">
      <Points>
        <DataArray type="Float64" NumberOfComponents="3" format="ascii">
          3.00000000e+00 2.00000000e+00 0.00000000e+00 
4.00000000e+00 2.00000000e+00 0.00000000e+00 
5.00000000e+00 2.00000000e+00 0.00000000e+00 
6.00000000e+00 2.00000000e+00 0.00000000e+00 
3.00000000e+00 2.33333325e+00 0.00000000e+00 
4.00000000e+00 2.33333325e+00 0.00000000e+00 
5.00000000e+00 2.33333325e+00 0.00000000e+00 
6.00000000e+00 2.33333325e+00 0.00000000e+00 
3.00000000e+00 2.66666675e+00 0.00000000e+00 
4.00000000e+00 2.66666675e+00 0.00000000e+00 
5.00000000e+00 2.66666675e+00 0.00000000e+00 
6.00000000e+00 2.66666675e+00 0.00000000e+00 
3.00000000e+00 3.00000000e+00 0.00000000e+00 
4.00000000e+00 3.00000000e+00 0.00000000e+00 
5.00000000e+00 3.00000000e+00 0.00000000e+00 
6.00000000e+00 3.00000000e+00 0.00000000e+00 

        </DataArray>
      </Points>
      <Cells>
        <DataArray type="Int32" Name="connectivity" format="ascii">
0 1 5 4
4 5 9 8
8 9 13 12
1 2 6 5
5 6 10 9
9 10 14 13
2 3 7 6
6 7 11 10
10 11 15 14

        </DataArray>
        <DataArray type="Int32" Name="offsets" format="ascii">
4 8 12 16 20 24 28 32 36 
        </DataArray>
        <DataArray type="UInt8" Name="types" format="ascii">
9 9 9 9 9 9 9 9 9 
        </DataArray>
      </Cells>
      <PointData>
        <DataArray type="Float64" Name="u">
          0.00000000e+00 -5.26600040e+00 -4.48299972e+00 -1.93765975e+00 0.00000000e+00 -1.45573133e+00 5.17112688e+00 1.85750205e+01 0.00000000e+00 1.13158863e+01 2.54718076e+01 4.94628607e+01 0.00000000e+00 5.36872413e+01 7.08566739e+01 9.68760143e+01 
        </DataArray>
        <DataArray type="Float64" Name="v">
          0.00000000e+00 1.18556550e+01 8.69179812e+00 3.44043619e+00 0.00000000e+00 1.30223862e+01 5.82773038e+00 -1.96719201e+00 0.00000000e+00 1.01262969e+01 2.95035209e+00 -6.41530253e+00 0.00000000e+00 -9.78014556e-01 -6.50812083e+00 -1.21427976e+01 
        </DataArray>
        <DataArray type="Float64" Name="p">
          -4.96448538e+03 -4.99950947e+03 -5.03453355e+03 -5.06955764e+03 -5.07065166e+03 -5.03903470e+03 -5.00741774e+03 -4.97580079e+03 -5.17681793e+03 -5.07855993e+03 -4.98030193e+03 -4.88204393e+03 -5.28298420e+03 -5.11808516e+03 -4.95318612e+03 -4.78828708e+03 
        </DataArray>
      </PointData>
    </Piece>
    <Piece NumberOfPoints="16" NumberOfCells="9">
      <Points>
        <DataArray type="Float64" NumberOfComponents="3" format="ascii">
          3.00000000e+00 3.00000000e+00 0.00000000e+00 
4.00000000e+00 3.00000000e+00 0.00000000e+00 
5.00000000e+00 3.00000000e+00 0.00000000e+00 
6.00000000e+00 3.00000000e+00 0.00000000e+00 
3.00000000e+00 3.33333325e+00 0.00000000e+00 
4.00000000e+00 3.33333325e+00 0.00000000e+00 
5.00000000e+00 3.33333325e+00 0.00000000e+00 
6.00000000e+00 3.33333325e+00 0.00000000e+00 
3.00000000e+00 3.66666675e+00 0.00000000e+00 
4.00000000e+00 3.66666675e+00 0.00000000e+00 
5.00000000e+00 3.66666675e+00 0.00000000e+00 
6.00000000e+00 3.66666675e+00 0.00000000e+00 
3.00000000e+00 4.00000000e+00 0.00000000e+00 
4.00000000e+00 4.00000000e+00 0.00000000e+00 
5.00000000e+00 4.00000000e+00 0.00000000e+00 
6.00000000e+00 4.00000000e+00 0.00000000e+00 

        </DataArray>
      </Points>
      <Cells>
        <DataArray type="Int32" Name="connectivity" format="ascii">
0 1 5 4
4 5 9 8
8 9 13 12
1 2 6 5
5 6 10 9
9 10 14 13
2 3 7 6
6 7 11 10
10 11 15 14

        </DataArray>
        <DataArray type="Int32" Name="offsets" format="ascii">
4 8 12 16 20 24 28 32 36 
        </DataArray>
        <DataArray type="UInt8" Name="types" format="ascii">
9 9 9 9 9 9 9 9 9 
        </DataArray>
      </Cells>
      <PointData>
        <DataArray type="Float64" Name="u">
          0.00000000e+00 5.36872413e+01 7.08566739e+01 9.68760143e+01 1.06122546e+02 1.15202564e+02 1.30487372e+02 1.45540758e+02 1.66871691e+02 1.70338995e+02 1.78442707e+02 1.85726012e+02 2.07546649e+02 2.05621023e+02 2.10024235e+02 2.10088219e+02 
        </DataArray>
        <DataArray type="Float64" Name="v">
          0.00000000e+00 -9.78014556e-01 -6.50812083e+00 -1.21427976e+01 -4.41544027e+00 -1.22718762e+01 -1.55699324e+01 -1.68423330e+01 -4.42282565e+00 -1.12982596e+01 -1.55964015e+01 -1.79212819e+01 -7.22970123e+00 -1.36710086e+01 -1.83513103e+01 -2.27162734e+01 
        </DataArray>
        <DataArray type="Float64" Name="p">
          -5.41922813e+03 -5.20081541e+03 -4.98240270e+03 -4.76398999e+03 -5.01047366e+03 -4.91896310e+03 -4.82745254e+03 -4.73594198e+03 -4.60171919e+03 -4.63711078e+03 -4.67250238e+03 -4.70789398e+03 -4.19296472e+03 -4.35525847e+03 -4.51755222e+03 -4.67984597e+03 
        </DataArray>
      </PointData>
    </Piece>
    <Piece NumberOfPoints="16" NumberOfCells="9">
      <Points>
        <DataArray type="Float64" NumberOfComponents="3" format="ascii">
          3.00000000e+00 4.00000000e+00 0.00000000e+00 
4.00000000e+00 4.00000000e+00 0.00000000e+00 
5.00000000e+00 4.00000000e+00 0.00000000e+00 
6.00000000e+00 4.00000000e+00 0.00000000e+00 
3.00000000e+00 4.33333349e+00 0.00000000e+00 
4.00000000e+00 4.33333349e+00 0.00000000e+00 
5.00000000e+00 4.33333349e+00 0.00000000e+00 
6.00000000e+00 4.33333349e+00 0.00000000e+00 
3.00000000e+00 4.66666651e+00 0.00000000e+00 
4.00000000e+00 4.66666651e+00 0.00000000e+00 
5.00000000e+00 4.66666651e+00 0.00000000e+00 
6.00000000e+00 4.66666651e+00 0.00000000e+00 
3.00000000e+00 5.00000000e+00 0.00000000e+00 
4.00000000e+00 5.00000000e+00 0.00000000e+00 
5.00000000e+00 5.00000000e+00 0.00000000e+00 
6.00000000e+00 5.00000000e+00 0.00000000e+00 

        </DataArray>
      </Points>
      <Cells>
        <DataArray type="Int32" Name="connectivity" format="ascii">
0 1 5 4
4 5 9 8
8 9 13 12
1 2 6 5
5 6 10 9
9 10 14 13
2 3 7 6
6 7 11 10
10 11 15 14

        </DataArray>
        <DataArray type="Int32" Name="offsets" format="ascii">
4 8 12 16 20 24 28 32 36 
        </DataArray>
        <DataArray type="UInt8" Name="types" format="ascii">
9 9 9 9 9 9 9 9 9 
        </DataArray>
      </Cells>
      <PointData>
        <DataArray type="Float64" Name="u">
          2.07546649e+02 2.05621023e+02 2.10024235e+02 2.10088219e+02 2.24221186e+02 2.20711644e+02 2.19357614e+02 2.13903117e+02 2.19145013e+02 2.12432805e+02 2.07189738e+02 1.96191376e+02 1.92020827e+02 1.83874138e+02 1.75666939e+02 1.61203750e+02 
        </DataArray>
        <DataArray type="Float64" Name="v">
          -7.22970123e+00 -1.36710086e+01 -1.83513103e+01 -2.27162734e+01 -7.46609969e+00 -1.20434515e+01 -1.71849495e+01 -2.21730593e+01 -7.47602812e+00 -1.20496590e+01 -1.62240049e+01 -2.06885066e+01 -6.45824848e+00 -8.20222704e+00 -1.19778170e+01 -1.63176753e+01 
        </DataArray>
        <DataArray type="Float64" Name="p">
          -4.11337976e+03 -4.27774731e+03 -4.44211486e+03 -4.60648241e+03 -3.77990383e+03 -3.92693882e+03 -4.07397380e+03 -4.22100879e+03 -3.44642790e+03 -3.57613032e+03 -3.70583274e+03 -3.83553517e+03 -3.11295197e+03 -3.22532183e+03 -3.33769169e+03 -3.45006155e+03 
        </DataArray>
      </PointData>
    </Piece>
    <Piece NumberOfPoints="16" NumberOfCells="9">
      <Points>
        <DataArray type="Float64" NumberOfComponents="3" format="ascii">
          3.00000000e+00 5.00000000e+00 0.00000000e+00 
4.00000000e+00 5.00000000e+00 0.00000000e+00 
5.00000000e+00 5.00000000e+00 0.00000000e+00 
6.00000000e+00 5.00000000e+00 0.00000000e+00 
3.00000000e+00 5.33333349e+00 0.00000000e+00 
4.00000000e+00 5.33333349e+00 0.00000000e+00 
5.00000000e+00 5.33333349e+00 0.00000000e+00 
6.00000000e+00 5.33333349e+00 0.00000000e+00 
3.00000000e+00 5.66666651e+00 0.00000000e+00 
4.00000000e+00 5.66666651e+00 0.00000000e+00 
5.00000000e+00 5.66666651e+00 0.00000000e+00 
6.00000000e+00 5.66666651e+00 0.00000000e+00 
3.00000000e+00 6.00000000e+00 0.00000000e+00 
4.00000000e+00 6.00000000e+00 0.00000000e+00 
5.00000000e+00 6.00000000e+00 0.00000000e+00 
6.00000000e+00 6.00000000e+00 0.00000000e+00 

        </DataArray>
      </Points>
      <Cells>
        <DataArray type="Int32" Name="connectivity" format="ascii">
0 1 5 4
4 5 9 8
8 9 13 12
1 2 6 5
5 6 10 9
9 10 14 13
2 3 7 6
6 7 11 10
10 11 15 14

        </DataArray>
        <DataArray type="Int32" Name="offsets" format="ascii">
4 8 12 16 20 24 28 32 36 
        </DataArray>
        <DataArray type="UInt8" Name="types" format="ascii">
9 9 9 9 9 9 9 9 9 
        </DataArray>
      </Cells>
      <PointData>
        <DataArray type="Float64" Name="u">
          1.92020827e+02 1.83874138e+02 1.75666939e+02 1.61203750e+02 1.44041421e+02 1.34100130e+02 1.25041508e+02 1.10634851e+02 7.32198266e+01 7.21592468e+01 6.68980216e+01 6.01053386e+01 0.00000000e+00 2.69653446e+01 2.51672742e+01 3.03962592e+01 
        </DataArray>
        <DataArray type="Float64" Name="v">
          -6.45824848e+00 -8.20222704e+00 -1.19778170e+01 -1.63176753e+01 -4.03136958e+00 -3.57446403e+00 -5.70928271e+00 -9.95988368e+00 -2.96336138e+00 -3.51296217e+00 -6.57536388e+00 -8.71527039e+00 0.00000000e+00 -6.40238601e+00 -4.76399286e+00 -3.15558927e+00 
        </DataArray>
        <DataArray type="Float64" Name="p">
          -3.13926726e+03 -3.19714339e+03 -3.25501951e+03 -3.31289563e+03 -3.19195998e+03 -3.18151354e+03 -3.17106709e+03 -3.16062065e+03 -3.24465269e+03 -3.16588368e+03 -3.08711468e+03 -3.00834567e+03 -3.29734541e+03 -3.15025383e+03 -3.00316226e+03 -2.85607069e+03 
        </DataArray>
      </PointData>
    </Piece>
    <Piece NumberOfPoints="16" NumberOfCells="9">
      <Points>
        <DataArray type="Float64" NumberOfComponents="3" format="ascii">
          3.00000000e+00 6.00000000e+00 0.00000000e+00 
4.00000000e+00 6.00000000e+00 0.00000000e+00 
5.00000000e+00 6.00000000e+00 0.00000000e+00 
6.00000000e+00 6.00000000e+00 0.00000000e+00 
3.00000000e+00 6.33333349e+00 0.00000000e+00 
4.00000000e+00 6.33333349e+00 0.00000000e+00 
5.00000000e+00 6.33333349e+00 0.00000000e+00 
6.00000000e+00 6.33333349e+00 0.00000000e+00 
3.00000000e+00 6.66666651e+00 0.00000000e+00 
4.00000000e+00 6.66666651e+00 0.00000000e+00 
5.00000000e+00 6.66666651e+00 0.00000000e+00 
6.00000000e+00 6.66666651e+00 0.00000000e+00 
3.00000000e+00 7.00000000e+00 0.00000000e+00 
4.00000000e+00 7.00000000e+00 0.00000000e+00 
5.00000000e+00 7.00000000e+00 0.00000000e+00 
6.00000000e+00 7.00000000e+00 0.00000000e+00 

        </DataArray>
      </Points>
      <Cells>
        <DataArray type="Int32" Name="connectivity" format="ascii">
0 1 5 4
4 5 9 8
8 9 13 12
1 2 6 5
5 6 10 9
9 10 14 13
2 3 7 6
6 7 11 10
10 11 15 14

        </DataArray>
        <DataArray type="Int32" Name="offsets" format="ascii">
4 8 12 16 20 24 28 32 36 
        </DataArray>
        <DataArray type="UInt8" Name="types" format="ascii">
9 9 9 9 9 9 9 9 9 
        </DataArray>
      </Cells>
      <PointData>
        <DataArray type="Float64" Name="u">
          0.00000000e+00 2.69653446e+01 2.51672742e+01 3.03962592e+01 0.00000000e+00 3.70220401e+00 5.29369414e+00 9.43841070e+00 0.00000000e+00 -3.15719184e+00 -3.37760200e+00 -2.93951731e+00 0.00000000e+00 -5.15047280e+00 -7.30254150e+00 -9.89734433e+00 
        </DataArray>
        <DataArray type="Float64" Name="v">
          0.00000000e+00 -6.40238601e+00 -4.76399286e+00 -3.15558927e+00 0.00000000e+00 -1.06354925e+01 -6.66607499e+00 -2.87282049e+00 0.00000000e+00 -1.08890965e+01 -6.32781131e+00 -3.24814290e+00 0.00000000e+00 -9.13423564e+00 -6.30432557e+00 -3.67090730e+00 
        </DataArray>
        <DataArray type="Float64" Name="p">
          -3.28575273e+03 -3.18899503e+03 -3.09223734e+03 -2.99547964e+03 -3.21659324e+03 -3.15135028e+03 -3.08610733e+03 -3.02086437e+03 -3.14743376e+03 -3.11370553e+03 -3.07997731e+03 -3.04624909e+03 -3.07827427e+03 -3.07606079e+03 -3.07384730e+03 -3.07163381e+03 
        </DataArray>
      </PointData>
    </Piece>
    <Piece NumberOfPoints="16" NumberOfCells="9">
      <Points>
        <DataArray type="Float64" NumberOfComponents="3" format="ascii">
          3.00000000e+00 7.00000000e+00 0.00000000e+00 
4.00000000e+00 7.00000000e+00 0.00000000e+00 
5.00000000e+00 7.00000000e+00 0.00000000e+00 
6.00000000e+00 7.00000000e+00 0.00000000e+00 
3.00000000e+00 7.33333349e+00 0.00000000e+00 
4.00000000e+00 7.33333349e+00 0.00000000e+00 
5.00000000e+00 7.33333349e+00 0.00000000e+00 
6.00000000e+00 7.33333349e+00 0.00000000e+00 
3.00000000e+00 7.66666651e+00 0.00000000e+00 
4.00000000e+00 7.66666651e+00 0.00000000e+00 
5.00000000e+00 7.66666651e+00 0.00000000e+00 
6.00000000e+00 7.66666651e+00 0.00000000e+00 
3.00000000e+00 8.00000000e+00 0.00000000e+00 
4.00000000e+00 8.00000000e+00 0.00000000e+00 
5.00000000e+00 8.00000000e+00 0.00000000e+00 
6.00000000e+00 8.00000000e+00 0.00000000e+00 

        </DataArray>
      </Points>
      <Cells>
        <DataArray type="Int32" Name="connectivity" format="ascii">
0 1 5 4
4 5 9 8
8 9 13 12
1 2 6 5
5 6 10 9
9 10 14 13
2 3 7 6
6 7 11 10
10 11 15 14

        </DataArray>
        <DataArray type="Int32" Name="offsets" format="ascii">
4 8 12 16 20 24 28 32 36 
        </DataArray>
        <DataArray type="UInt8" Name="types" format="ascii">
9 9 9 9 9 9 9 9 9 
        </DataArray>
      </Cells>
      <PointData>
        <DataArray type="Float64" Name="u">
          0.00000000e+00 -5.15047280e+00 -7.30254150e+00 -9.89734433e+00 0.00000000e+00 -5.49995126e+00 -8.89893527e+00 -1.26677182e+01 0.00000000e+00 -5.05851187e+00 -8.79023068e+00 -1.29573967e+01 0.00000000e+00 -4.17734348e+00 -7.52739618e+00 -1.14508820e+01 
        </DataArray>
        <DataArray type="Float64" Name="v">
          0.00000000e+00 -9.13423564e+00 -6.30432557e+00 -3.67090730e+00 0.00000000e+00 -6.84392148e+00 -5.05719211e+00 -3.19183561e+00 0.00000000e+00 -4.99255438e+00 -3.85948042e+00 -2.51879165e+00 0.00000000e+00 -2.85901401e+00 -2.35785735e+00 -1.59478651e+00 
        </DataArray>
        <DataArray type="Float64" Name="p">
          -3.08286198e+03 -3.07085666e+03 -3.05885135e+03 -3.04684603e+03 -3.06458192e+03 -3.05501120e+03 -3.04544047e+03 -3.03586974e+03 -3.04630187e+03 -3.03916573e+03 -3.03202959e+03 -3.02489345e+03 -3.02802181e+03 -3.02332026e+03 -3.01861871e+03 -3.01391716e+03 
        </DataArray>
      </PointData>
    </Piece>
    <Piece NumberOfPoints="16" NumberOfCells="9">
      <Points>
        <DataArray type="Float64" NumberOfComponents="3" format="ascii">
          3.00000000e+00 8.00000000e+00 0.00000000e+00 
4.00000000e+00 8.00000000e+00 0.00000000e+00 
5.00000000e+00 8.00000000e+00 0.00000000e+00 
6.00000000e+00 8.00000000e+00 0.00000000e+00 
3.00000000e+00 8.33333302e+00 0.00000000e+00 
4.00000000e+00 8.33333302e+00 0.00000000e+00 
5.00000000e+00 8.33333302e+00 0.00000000e+00 
6.00000000e+00 8.33333302e+00 0.00000000e+00 
3.00000000e+00 8.66666698e+00 0.00000000e+00 
4.00000000e+00 8.66666698e+00 0.00000000e+00 
5.00000000e+00 8.66666698e+00 0.00000000e+00 
6.00000000e+00 8.66666698e+00 0.00000000e+00 
3.00000000e+00 9.00000000e+00 0.00000000e+00 
4.00000000e+00 9.00000000e+00 0.00000000e+00 
5.00000000e+00 9.00000000e+00 0.00000000e+00 
6.00000000e+00 9.00000000e+00 0.00000000e+00 

        </DataArray>
      </Points>
      <Cells>
        <DataArray type="Int32" Name="connectivity" format="ascii">
0 1 5 4
4 5 9 8
8 9 13 12
1 2 6 5
5 6 10 9
9 10 14 13
2 3 7 6
6 7 11 10
10 11 15 14

        </DataArray>
        <DataArray type="Int32" Name="offsets" format="ascii">
4 8 12 16 20 24 28 32 36 
        </DataArray>
        <DataArray type="UInt8" Name="types" format="ascii">
9 9 9 9 9 9 9 9 9 
        </DataArray>
      </Cells>
      <PointData>
        <DataArray type="Float64" Name="u">
          0.00000000e+00 -4.17734348e+00 -7.52739618e+00 -1.14508820e+01 0.00000000e+00 -3.01536630e+00 -5.47220221e+00 -8.65748207e+00 0.00000000e+00 -1.61609538e+00 -2.88358599e+00 -4.77095787e+00 0.00000000e+00 0.00000000e+00 0.00000000e+00 0.00000000e+00 
        </DataArray>
        <DataArray type="Float64" Name="v">
          0.00000000e+00 -2.85901401e+00 -2.35785735e+00 -1.59478651e+00 0.00000000e+00 -1.26448404e+00 -1.10672071e+00 -7.29209080e-01 0.00000000e+00 -3.97027003e-01 -3.76495729e-01 -2.40650373e-01 0.00000000e+00 0.00000000e+00 0.00000000e+00 0.00000000e+00 
        </DataArray>
        <DataArray type="Float64" Name="p">
          -3.03201807e+03 -3.02607291e+03 -3.02012774e+03 -3.01418257e+03 -3.03562788e+03 -3.02942220e+03 -3.02321651e+03 -3.01701082e+03 -3.03923769e+03 -3.03277149e+03 -3.02630528e+03 -3.01983907e+03 -3.04284751e+03 -3.03612078e+03 -3.02939405e+03 -3.02266732e+03 
        </DataArray>
      </PointData>
    </Piece>
    <Piece NumberOfPoints="16" NumberOfCells="9">
      <Points>
        <DataArray type="Float64" NumberOfComponents="3" format="ascii">
          6.00000000e+00 0.00000000e+00 0.00000000e+00 
7.00000000e+00 0.00000000e+00 0.00000000e+00 
8.00000000e+00 0.00000000e+00 0.00000000e+00 
9.00000000e+00 0.00000000e+00 0.00000000e+00 
6.00000000e+00 3.33333343e-01 0.00000000e+00 
7.00000000e+00 3.33333343e-01 0.00000000e+00 
8.00000000e+00 3.33333343e-01 0.00000000e+00 
9.00000000e+00 3.33333343e-01 0.00000000e+00 
6.00000000e+00 6.66666687e-01 0.00000000e+00 
7.00000000e+00 6.66666687e-01 0.00000000e+00 
8.00000000e+00 6.66666687e-01 0.00000000e+00 
9.00000000e+00 6.66666687e-01 0.00000000e+00 
6.00000000e+00 1.00000000e+00 0.00000000e+00 
7.00000000e+00 1.00000000e+00 0.00000000e+00 
8.00000000e+00 1.00000000e+00 0.00000000e+00 
9.00000000e+00 1.00000000e+00 0.00000000e+00 

        </DataArray>
      </Points>
      <Cells>
        <DataArray type="Int32" Name="connectivity" format="ascii">
0 1 5 4
4 5 9 8
8 9 13 12
1 2 6 5
5 6 10 9
9 10 14 13
2 3 7 6
6 7 11 10
10 11 15 14

        </DataArray>
        <DataArray type="Int32" Name="offsets" format="ascii">
4 8 12 16 20 24 28 32 36 
        </DataArray>
        <DataArray type="UInt8" Name="types" format="ascii">
9 9 9 9 9 9 9 9 9 
        </DataArray>
      </Cells>
      <PointData>
        <DataArray type="Float64" Name="u">