<?xml version="1.0"?>
<VTKFile type="UnstructuredGrid" version="0.1" byte_order="LittleEndian">
  <UnstructuredGrid>
    <Piece NumberOfPoints="16" NumberOfCells="9">
      <Points>
        <DataArray type="Float64" NumberOfComponents="3" format="ascii">
          0.00000000e+00 3.00000000e+00 0.00000000e+00 
1.00000000e+00 3.00000000e+00 0.00000000e+00 
2.00000000e+00 3.00000000e+00 0.00000000e+00 
3.00000000e+00 3.00000000e+00 0.00000000e+00 
0.00000000e+00 3.33333325e+00 0.00000000e+00 
1.00000000e+00 3.33333325e+00 0.00000000e+00 
2.00000000e+00 3.33333325e+00 0.00000000e+00 
3.00000000e+00 3.33333325e+00 0.00000000e+00 
0.00000000e+00 3.66666675e+00 0.00000000e+00 
1.00000000e+00 3.66666675e+00 0.00000000e+00 
2.00000000e+00 3.66666675e+00 0.00000000e+00 
3.00000000e+00 3.66666675e+00 0.00000000e+00 
0.00000000e+00 4.00000000e+00 0.00000000e+00 
1.00000000e+00 4.00000000e+00 0.00000000e+00 
2.00000000e+00 4.00000000e+00 0.00000000e+00 
3.00000000e+00 4.00000000e+00 0.00000000e+00 

        </DataArray>
      </Points>
      <Cells>
        <DataArray type="Int32" Name="connectivity" format="ascii">
0 1 5 4
4 5 9 8
8 9 13 12
1 2 6 5
5 6 10 9
9 10 14 13
2 3 7 6
6 7 11 10
10 11 15 14

        </DataArray>
        <DataArray type="Int32" Name="offsets" format="ascii">
4 8 12 16 20 24 28 32 36 
        </DataArray>
        <DataArray type="UInt8" Name="types" format="ascii">
9 9 9 9 9 9 9 9 9 
        </DataArray>
      </Cells>
      <PointData>
        <DataArray type="Float64" Name="u">
          0.00000000e+00 0.00000000e+00 0.00000000e+00 0.00000000e+00 8.88888889e+01 9.23389989e+01 9.10182774e+01 1.00396904e+02 1.55555556e+02 1.58653802e+02 1.58277853e+02 1.64513871e+02 2.00000000e+02 2.01684259e+02 2.02098046e+02 2.05472432e+02 
        </DataArray>
        <DataArray type="Float64" Name="v">
          0.00000000e+00 0.00000000e+00 0.00000000e+00 0.00000000e+00 0.00000000e+00 -8.88005388e-01 -1.30366200e+00 -3.89973258e+00 0.00000000e+00 -7.98168932e-01 -1.96119526e+00 -3.79379860e+00 0.00000000e+00 -1.93077512e+00 -3.50249879e+00 -5.99065200e+00 
        </DataArray>
        <DataArray type="Float64" Name="p">
          2.51621473e+03 1.16449628e+03 -1.87222177e+02 -1.53894063e+03 2.52611884e+03 1.19681929e+03 -1.32480261e+02 -1.46177981e+03 2.53602296e+03 1.22914231e+03 -7.77383453e+01 -1.38461900e+03 2.54592707e+03 1.26146532e+03 -2.29964296e+01 -1.30745818e+03 
        </DataArray>
      </PointData>
    </Piece>
    <Piece NumberOfPoints="16" NumberOfCells="9">
      <Points>
        <DataArray type="Float64" NumberOfComponents="3" format="ascii">
          0.00000000e+00 4.00000000e+00 0.00000000e+00 
1.00000000e+00 4.00000000e+00 0.00000000e+00 
2.00000000e+00 4.00000000e+00 0.00000000e+00 
3.00000000e+00 4.00000000e+00 0.00000000e+00 
0.00000000e+00 4.33333349e+00 0.00000000e+00 
1.00000000e+00 4.33333349e+00 0.00000000e+00 
2.00000000e+00 4.33333349e+00 0.00000000e+00 
3.00000000e+00 4.33333349e+00 0.00000000e+00 
0.00000000e+00 4.66666651e+00 0.00000000e+00 
1.00000000e+00 4.66666651e+00 0.00000000e+00 
2.00000000e+00 4.66666651e+00 0.00000000e+00 
3.00000000e+00 4.66666651e+00 0.00000000e+00 
0.00000000e+00 5.00000000e+00 0.00000000e+00 
1.00000000e+00 5.00000000e+00 0.00000000e+00 
2.00000000e+00 5.00000000e+00 0.00000000e+00 
3.00000000e+00 5.00000000e+00 0.00000000e+00 

        </DataArray>
      </Points>
      <Cells>
        <DataArray type="Int32" Name="connectivity" format="ascii">
0 1 5 4
4 5 9 8
8 9 13 12
1 2 6 5
5 6 10 9
9 10 14 13
2 3 7 6
6 7 11 10
10 11 15 14

        </DataArray>
        <DataArray type="Int32" Name="offsets" format="ascii">
4 8 12 16 20 24 28 32 36 
        </DataArray>
        <DataArray type="UInt8" Name="types" format="ascii">
9 9 9 9 9 9 9 9 9 
        </DataArray>
      </Cells>
      <PointData>
        <DataArray type="Float64" Name="u">
          2.00000000e+02 2.01684259e+02 2.02098046e+02 2.05472432e+02 2.22222222e+02 2.22525190e+02 2.22871033e+02 2.23623994e+02 2.22222222e+02 2.21050519e+02 2.21313265e+02 2.19362640e+02 2.00000000e+02 1.97586519e+02 1.98016821e+02 1.93348608e+02 
        </DataArray>
        <DataArray type="Float64" Name="v">
          0.00000000e+00 -1.93077512e+00 -3.50249879e+00 -5.99065200e+00 0.00000000e+00 -2.19498100e+00 -4.19452481e+00 -5.91534357e+00 0.00000000e+00 -2.22171435e+00 -4.07573938e+00 -6.11447943e+00 0.00000000e+00 -1.69193188e+00 -3.46742419e+00 -4.96160792e+00 
        </DataArray>
        <DataArray type="Float64" Name="p">
          2.57238550e+03 1.29112239e+03 9.85928855e+00 -1.27140382e+03 2.73455335e+03 1.44705898e+03 1.59564604e+02 -1.12792977e+03 2.89672120e+03 1.60299556e+03 3.09269920e+02 -9.84455719e+02 3.05888905e+03 1.75893214e+03 4.58975235e+02 -8.40981670e+02 
        </DataArray>
      </PointData>
    </Piece>
    <Piece NumberOfPoints="16" NumberOfCells="9">
      <Points>
        <DataArray type="Float64" NumberOfComponents="3" format="ascii">
          0.00000000e+00 5.00000000e+00 0.00000000e+00 
1.00000000e+00 5.00000000e+00 0.00000000e+00 
2.00000000e+00 5.00000000e+00 0.00000000e+00 
3.00000000e+00 5.00000000e+00 0.00000000e+00 
0.00000000e+00 5.33333349e+00 0.00000000e+00 
1.00000000e+00 5.33333349e+00 0.00000000e+00 
2.00000000e+00 5.33333349e+00 0.00000000e+00 
3.00000000e+00 5.33333349e+00 0.00000000e+00 
0.00000000e+00 5.66666651e+00 0.00000000e+00 
1.00000000e+00 5.66666651e+00 0.00000000e+00 
2.00000000e+00 5.66666651e+00 0.00000000e+00 
3.00000000e+00 5.66666651e+00 0.00000000e+00 
0.00000000e+00 6.00000000e+00 0.00000000e+00 
1.00000000e+00 6.00000000e+00 0.00000000e+00 
2.00000000e+00 6.00000000e+00 0.00000000e+00 
3.00000000e+00 6.00000000e+00 0.00000000e+00 

        </DataArray>
      </Points>
      <Cells>
        <DataArray type="Int32" Name="connectivity" format="ascii">
0 1 5 4
4 5 9 8
8 9 13 12
1 2 6 5
5 6 10 9
9 10 14 13
2 3 7 6
6 7 11 10
10 11 15 14

        </DataArray>
        <DataArray type="Int32" Name="offsets" format="ascii">
4 8 12 16 20 24 28 32 36 
        </DataArray>
        <DataArray type="UInt8" Name="types" format="ascii">
9 9 9 9 9 9 9 9 9 
        </DataArray>
      </Cells>
      <PointData>
        <DataArray type="Float64" Name="u">
          2.00000000e+02 1.97586519e+02 1.98016821e+02 1.93348608e+02 1.55555556e+02 1.52541394e+02 1.53221377e+02 1.46663027e+02 8.88888889e+01 8.62885460e+01 8.69759797e+01 7.95588717e+01 0.00000000e+00 0.00000000e+00 0.00000000e+00 0.00000000e+00 
        </DataArray>
        <DataArray type="Float64" Name="v">
          0.00000000e+00 -1.69193188e+00 -3.46742419e+00 -4.96160792e+00 0.00000000e+00 -6.77808096e-01 -1.84363237e+00 -3.04503848e+00 0.00000000e+00 -6.33459677e-01 -1.56669919e+00 -1.41196965e+00 0.00000000e+00 0.00000000e+00 0.00000000e+00 0.00000000e+00 
        </DataArray>
        <DataArray type="Float64" Name="p">
          3.06442592e+03 1.78003448e+03 4.95643041e+02 -7.88748397e+02 3.09367333e+03 1.81507906e+03 5.36484791e+02 -7.42109478e+02 3.12292074e+03 1.85012364e+03 5.77326540e+02 -6.95470559e+02 3.15216815e+03 1.88516822e+03 6.18168290e+02 -6.48831640e+02 
        </DataArray>
      </PointData>
    </Piece>
    <Piece NumberOfPoints="16" NumberOfCells="9">
      <Points>
        <DataArray type="Float64" NumberOfComponents="3" format="ascii">
          3.00000000e+00 0.00000000e+00 0.00000000e+00 
4.00000000e+00 0.00000000e+00 0.00000000e+00 
5.00000000e+00 0.00000000e+00 0.00000000e+00 
6.00000000e+00 0.00000000e+00 0.00000000e+00 
3.00000000e+00 3.33333343e-01 0.00000000e+00 
4.00000000e+00 3.33333343e-01 0.00000000e+00 
5.00000000e+00 3.33333343e-01 0.00000000e+00 
6.00000000e+00 3.33333343e-01 0.00000000e+00 
3.00000000e+00 6.66666687e-01 0.00000000e+00 
4.00000000e+00 6.66666687e-01 0.00000000e+00 
5.00000000e+00 6.66666687e-01 0.00000000e+00 
6.00000000e+00 6.66666687e-01 0.00000000e+00 
3.00000000e+00 1.00000000e+00 0.00000000e+00 
4.00000000e+00 1.00000000e+00 0.00000000e+00 
5.00000000e+00 1.00000000e+00 0.00000000e+00 
6.00000000e+00 1.00000000e+00 0.00000000e+00 

        </DataArray>
      </Points>
      <Cells>
        <DataArray type="Int32" Name="connectivity" format="ascii">
0 1 5 4
4 5 9 8
8 9 13 12
1 2 6 5
5 6 10 9
9 10 14 13
2 3 7 6
6 7 11 10
10 11 15 14

        </DataArray>
        <DataArray type="Int32" Name="offsets" format="ascii">
4 8 12 16 20 24 28 32 36 
        </DataArray>
        <DataArray type="UInt8" Name="types" format="ascii">
9 9 9 9 9 9 9 9 9 
        </DataArray>
      </Cells>
      <PointData>
        <DataArray type="Float64" Name="u">
          0.00000000e+00 0.00000000e+00 0.00000000e+00 0.00000000e+00 0.00000000e+00 -4.32701750e+00 -6.77117298e+00 -1.24168438e+01 0.00000000e+00 -7.35279648e+00 -1.18283876e+01 -2.09228683e+01 0.00000000e+00 -9.08285194e+00 -1.44070996e+01 -2.38160224e+01 
        </DataArray>
        <DataArray type="Float64" Name="v">
          0.00000000e+00 0.00000000e+00 0.00000000e+00 0.00000000e+00 0.00000000e+00 1.01553861e+00 1.08215396e+00 8.00846883e-01 0.00000000e+00 2.96689436e+00 2.95613143e+00 1.84830548e+00 0.00000000e+00 6.35106530e+00 6.22446125e+00 3.55180661e+00 
        </DataArray>
        <DataArray type="Float64" Name="p">
          -1.92858997e+03 -1.84941188e+03 -1.77023380e+03 -1.69105571e+03 -1.91472955e+03 -1.83680642e+03 -1.75888329e+03 -1.68096016e+03 -1.90086914e+03 -1.82420096e+03 -1.74753278e+03 -1.67086460e+03 -1.88700872e+03 -1.81159550e+03 -1.73618227e+03 -1.66076904e+03 
        </DataArray>
      </PointData>
    </Piece>
    <Piece NumberOfPoints="16" NumberOfCells="9">
      <Points>
        <DataArray type="Float64" NumberOfComponents="3" format="ascii">
          3.00000000e+00 1.00000000e+00 0.00000000e+00 
4.00000000e+00 1.00000000e+00 0.00000000e+00 
5.00000000e+00 1.00000000e+00 0.00000000e+00 
6.00000000e+00 1.00000000e+00 0.00000000e+00 
3.00000000e+00 1.33333337e+00 0.00000000e+00 
4.00000000e+00 1.33333337e+00 0.00000000e+00 
5.00000000e+00 1.33333337e+00 0.00000000e+00 
6.00000000e+00 1.33333337e+00 0.00000000e+00 
3.00000000e+00 1.66666663e+00 0.00000000e+00 
4.00000000e+00 1.66666663e+00 0.00000000e+00 
5.00000000e+00 1.66666663e+00 0.00000000e+00 
6.00000000e+00 1.66666663e+00 0.00000000e+00 
3.00000000e+00 2.00000000e+00 0.00000000e+00 
4.00000000e+00 2.00000000e+00 0.00000000e+00 
5.00000000e+00 2.00000000e+00 0.00000000e+00 
6.00000000e+00 2.00000000e+00 0.00000000e+00 

        </DataArray>
      </Points>
      <Cells>
        <DataArray type="Int32" Name="connectivity" format="ascii">
0 1 5 4
4 5 9 8
8 9 13 12
1 2 6 5
5 6 10 9
9 10 14 13
2 3 7 6
6 7 11 10
10 11 15 14

        </DataArray>
        <DataArray type="Int32" Name="offsets" format="ascii">
4 8 12 16 20 24 28 32 36 
        </DataArray>
        <DataArray type="UInt8" Name="types" format="ascii">
9 9 9 9 9 9 9 9 9 
        </DataArray>
      </Cells>
      <PointData>
        <DataArray type="Float64" Name="u">
          0.00000000e+00 -9.08285194e+00 -1.44070996e+01 -2.38160224e+01 0.00000000e+00 -9.48070114e+00 -1.38722193e+01 -2.07799933e+01 0.00000000e+00 -8.40787363e+00 -9.92609552e+00 -1.15518454e+01 0.00000000e+00 -5.30786573e+00 -2.05132687e+00 4.15306913e+00 
        </DataArray>
        <DataArray type="Float64" Name="v">
          0.00000000e+00 6.35106530e+00 6.22446125e+00 3.55180661e+00 0.00000000e+00 1.01715069e+01 9.17860661e+00 4.35637864e+00 0.00000000e+00 1.30229510e+01 1.08690999e+01 3.85842748e+00 0.00000000e+00 1.54699986e+01 1.08585046e+01 1.17903319e+00 
        </DataArray>
        <DataArray type="Float64" Name="p">
          -1.87601009e+03 -1.81172553e+03 -1.74744096e+03 -1.68315639e+03 -1.92509827e+03 -1.87082917e+03 -1.81656006e+03 -1.76229096e+03 -1.97418645e+03 -1.92993281e+03 -1.88567917e+03 -1.84142552e+03 -2.02327463e+03 -1.98903645e+03 -1.95479827e+03 -1.92056009e+03 
        </DataArray>
      </PointData>
    </Piece>
    <Piece NumberOfPoints="16" NumberOfCells="9">
      <Points>
        <DataArray type="Float64" NumberOfComponents="3" format="ascii">
          3.00000000e+00 2.00000000e+00 0.00000000e+00 
4.00000000e+00 2.00000000e+00 0.00000000e+00 
5.00000000e+00 2.00000000e+00 0.00000000e+00 
6.00000000e+00 2.00000000e+00 0.00000000e+00 
3.00000000e+00 2.33333325e+00 0.00000000e+00 
4.00000000e+00 2.33333325e+00 0.00000000e+00 
5.00000000e+00 2.33333325e+00 0.00000000e+00 
6.00000000e+00 2.33333325e+00 0.00000000e+00 
3.00000000e+00 2.66666675e+00 0.00000000e+00 
4.00000000e+00 2.66666675e+00 0.00000000e+00 
5.00000000e+00 2.66666675e+00 0.00000000e+00 
6.00000000e+00 2.66666675e+00 0.00000000e+00 
3.00000000e+00 3.00000000e+00 0.00000000e+00 
4.00000000e+00 3.00000000e+00 0.00000000e+00 
5.00000000e+00 3.00000000e+00 0.00000000e+00 
6.00000000e+00 3.00000000e+00 0.00000000e+00 

        </DataArray>
      </Points>
      <Cells>
        <DataArray type="Int32" Name="connectivity" format="ascii">
0 1 5 4
4 5 9 8
8 9 13 12
1 2 6 5
5 6 10 9
9 10 14 13
2 3 7 6
6 7 11 10
10 11 15 14

        </DataArray>
        <DataArray type="Int32" Name="offsets" format="ascii">
4 8 12 16 20 24 28 32 36 
        </DataArray>
        <DataArray type="UInt8" Name="types" format="ascii">
9 9 9 9 9 9 9 9 9 
        </DataArray>
      </Cells>
      <PointData>
        <DataArray type="Float64" Name="u">
          0.00000000e+00 -5.30786573e+00 -2.05132687e+00 4.15306913e+00 0.00000000e+00 1.25556880e+00 1.03881643e+01 2.77762061e+01 0.00000000e+00 1.78486581e+01 3.28780028e+01 5.83451132e+01 0.00000000e+00 5.80191814e+01 7.22144222e+01 9.85187508e+01 
        </DataArray>
        <DataArray type="Float64" Name="v">
          0.00000000e+00 1.54699986e+01 1.08585046e+01 1.17903319e+00 0.00000000e+00 1.60405358e+01 6.90705095e+00 -4.78039223e+00 0.00000000e+00 1.13406561e+01 2.07980721e+00 -9.12858392e+00 0.00000000e+00 -1.57442169e+00 -7.42390205e+00 -1.31857453e+01 
        </DataArray>
        <DataArray type="Float64" Name="p">
          -1.98378954e+03 -1.99867910e+03 -2.01356867e+03 -2.02845824e+03 -2.22317617e+03 -2.09644918e+03 -1.96972218e+03 -1.84299518e+03 -2.46256281e+03 -2.19421925e+03 -1.92587569e+03 -1.65753212e+03 -2.70194945e+03 -2.29198932e+03 -1.88202919e+03 -1.47206907e+03 
        </DataArray>
      </PointData>
    </Piece>
    <Piece NumberOfPoints="16" NumberOfCells="9">
      <Points>
        <DataArray type="Float64" NumberOfComponents="3" format="ascii">
          3.00000000e+00 3.00000000e+00 0.00000000e+00 
4.00000000e+00 3.00000000e+00 0.00000000e+00 
5.00000000e+00 3.00000000e+00 0.00000000e+00 
6.00000000e+00 3.00000000e+00 0.00000000e+00 
3.00000000e+00 3.33333325e+00 0.00000000e+00 
4.00000000e+00 3.33333325e+00 0.00000000e+00 
5.00000000e+00 3.33333325e+00 0.00000000e+00 
6.00000000e+00 3.33333325e+00 0.00000000e+00 
3.00000000e+00 3.66666675e+00 0.00000000e+00 
4.00000000e+00 3.66666675e+00 0.00000000e+00 
5.00000000e+00 3.66666675e+00 0.00000000e+00 
6.00000000e+00 3.66666675e+00 0.00000000e+00 
3.00000000e+00 4.00000000e+00 0.00000000e+00 
4.00000000e+00 4.00000000e+00 0.00000000e+00 
5.00000000e+00 4.00000000e+00 0.00000000e+00 
6.00000000e+00 4.00000000e+00 0.00000000e+00 

        </DataArray>
      </Points>
      <Cells>
        <DataArray type="Int32" Name="connectivity" format="ascii">
0 1 5 4
4 5 9 8
8 9 13 12
1 2 6 5
5 6 10 9
9 10 14 13
2 3 7 6
6 7 11 10
10 11 15 14

        </DataArray>
        <DataArray type="Int32" Name="offsets" format="ascii">
4 8 12 16 20 24 28 32 36 
        </DataArray>
        <DataArray type="UInt8" Name="types" format="ascii">
9 9 9 9 9 9 9 9 9 
        </DataArray>
      </Cells>
      <PointData>
        <DataArray type="Float64" Name="u">
          0.00000000e+00 5.80191814e+01 7.22144222e+01 9.85187508e+01 1.00396904e+02 1.10848931e+02 1.24736817e+02 1.38220786e+02 1.64513871e+02 1.64425353e+02 1.71486745e+02 1.75459208e+02 2.05472432e+02 2.00228888e+02 2.03149641e+02 1.98542201e+02 
        </DataArray>
        <DataArray type="Float64" Name="v">
          0.00000000e+00 -1.57442169e+00 -7.42390205e+00 -1.31857453e+01 -3.89973258e+00 -1.28647485e+01 -1.51796047e+01 -1.54272764e+01 -3.79379860e+00 -1.32544232e+01 -1.70057630e+01 -1.74971274e+01 -5.99065200e+00 -1.35222211e+01 -1.74861702e+01 -2.04636171e+01 
        </DataArray>
        <DataArray type="Float64" Name="p">
          -2.85136682e+03 -2.35480379e+03 -1.85824075e+03 -1.36167772e+03 -2.27439967e+03 -2.00425685e+03 -1.73411403e+03 -1.46397121e+03 -1.69743252e+03 -1.65370992e+03 -1.60998731e+03 -1.56626470e+03 -1.12046538e+03 -1.30316298e+03 -1.48586058e+03 -1.66855819e+03 
        </DataArray>
      </PointData>
    </Piece>
    <Piece NumberOfPoints="16" NumberOfCells="9">
      <Points>
        <DataArray type="Float64" NumberOfComponents="3" format="ascii">
          3.00000000e+00 4.00000000e+00 0.00000000e+00 
4.00000000e+00 4.00000000e+00 0.00000000e+00 
5.00000000e+00 4.00000000e+00 0.00000000e+00 
6.00000000e+00 4.00000000e+00 0.00000000e+00 
3.00000000e+00 4.33333349e+00 0.00000000e+00 
4.00000000e+00 4.33333349e+00 0.00000000e+00 
5.00000000e+00 4.33333349e+00 0.00000000e+00 
6.00000000e+00 4.33333349e+00 0.00000000e+00 
3.00000000e+00 4.66666651e+00 0.00000000e+00 
4.00000000e+00 4.66666651e+00 0.00000000e+00 
5.00000000e+00 4.66666651e+00 0.00000000e+00 
6.00000000e+00 4.66666651e+00 0.00000000e+00 
3.00000000e+00 5.00000000e+00 0.00000000e+00 
4.00000000e+00 5.00000000e+00 0.00000000e+00 
5.00000000e+00 5.00000000e+00 0.00000000e+00 
6.00000000e+00 5.00000000e+00 0.00000000e+00 

        </DataArray>
      </Points>
      <Cells>
        <DataArray type="Int32" Name="connectivity" format="ascii">
0 1 5 4
4 5 9 8
8 9 13 12
1 2 6 5
5 6 10 9
9 10 14 13
2 3 7 6
6 7 11 10
10 11 15 14

        </DataArray>
        <DataArray type="Int32" Name="offsets" format="ascii">
4 8 12 16 20 24 28 32 36 
        </DataArray>
        <DataArray type="UInt8" Name="types" format="ascii">
9 9 9 9 9 9 9 9 9 
        </DataArray>
      </Cells>
      <PointData>
        <DataArray type="Float64" Name="u">
          2.05472432e+02 2.00228888e+02 2.03149641e+02 1.98542201e+02 2.23623994e+02 2.15806326e+02 2.13684160e+02 2.04436701e+02 2.19362640e+02 2.09537605e+02 2.04000070e+02 1.90880331e+02 1.93348608e+02 1.82987834e+02 1.75613345e+02 1.61036216e+02 
        </DataArray>
        <DataArray type="Float64" Name="v">
          -5.99065200e+00 -1.35222211e+01 -1.74861702e+01 -2.04636171e+01 -5.91534357e+00 -1.04068097e+01 -1.53424988e+01 -1.98199879e+01 -6.11447943e+00 -9.56677782e+00 -1.29172534e+01 -1.73672967e+01 -4.96160792e+00 -4.76548654e+00 -8.54689156e+00 -1.38302243e+01 
        </DataArray>
        <DataArray type="Float64" Name="p">
          -9.36057382e+02 -1.17268370e+03 -1.40931002e+03 -1.64593634e+03 -6.47851493e+02 -8.53821362e+02 -1.05979123e+03 -1.26576110e+03 -3.59645603e+02 -5.34959024e+02 -7.10272446e+02 -8.85585867e+02 -7.14397135e+01 -2.16096686e+02 -3.60753659e+02 -5.05410632e+02 
        </DataArray>
      </PointData>
    </Piece>
    <Piece NumberOfPoints="16" NumberOfCells="9">
      <Points>
        <DataArray type="Float64" NumberOfComponents="3" format="ascii">
          3.00000000e+00 5.00000000e+00 0.00000000e+00 
4.00000000e+00 5.00000000e+00 0.00000000e+00 
5.00000000e+00 5.00000000e+00 0.00000000e+00 
6.00000000e+00 5.00000000e+00 0.00000000e+00 
3.00000000e+00 5.33333349e+00 0.00000000e+00 
4.00000000e+00 5.33333349e+00 0.00000000e+00 
5.00000000e+00 5.33333349e+00 0.00000000e+00 
6.00000000e+00 5.33333349e+00 0.00000000e+00 
3.00000000e+00 5.66666651e+00 0.00000000e+00 
4.00000000e+00 5.66666651e+00 0.00000000e+00 
5.00000000e+00 5.66666651e+00 0.00000000e+00 
6.00000000e+00 5.66666651e+00 0.00000000e+00 
3.00000000e+00 6.00000000e+00 0.00000000e+00 
4.00000000e+00 6.00000000e+00 0.00000000e+00 
5.00000000e+00 6.00000000e+00 0.00000000e+00 
6.00000000e+00 6.00000000e+00 0.00000000e+00 

        </DataArray>
      </Points>
      <Cells>
        <DataArray type="Int32" Name="connectivity" format="ascii">
0 1 5 4
4 5 9 8
8 9 13 12
1 2 6 5
5 6 10 9
9 10 14 13
2 3 7 6
6 7 11 10
10 11 15 14

        </DataArray>
        <DataArray type="Int32" Name="offsets" format="ascii">
4 8 12 16 20 24 28 32 36 
        </DataArray>
        <DataArray type="UInt8" Name="types" format="ascii">
9 9 9 9 9 9 9 9 9 
        </DataArray>
      </Cells>
      <PointData>
        <DataArray type="Float64" Name="u">
          1.93348608e+02 1.82987834e+02 1.75613345e+02 1.61036216e+02 1.46663027e+02 1.37835497e+02 1.31207055e+02 1.19994275e+02 7.95588717e+01 8.24036662e+01 8.05277385e+01 7.78635741e+01 0.00000000e+00 3.79258968e+01 3.79791716e+01 4.67984123e+01 
        </DataArray>
        <DataArray type="Float64" Name="v">
          -4.96160792e+00 -4.76548654e+00 -8.54689156e+00 -1.38302243e+01 -3.04503848e+00 -6.28249427e-01 -3.43050279e+00 -9.28653715e+00 -1.41196965e+00 -7.16556155e-01 -4.25286480e+00 -7.33146551e+00 0.00000000e+00 -6.23275777e+00 -4.54707395e+00 -2.85409469e+00 
        </DataArray>
        <DataArray type="Float64" Name="p">
          -1.77329027e+02 -2.31596475e+02 -2.85863923e+02 -3.40131370e+02 -3.79569988e+02 -2.86945070e+02 -1.94320151e+02 -1.01695233e+02 -5.81810948e+02 -3.42293664e+02 -1.02776380e+02 1.36740904e+02 -7.84051909e+02 -3.97642259e+02 -1.12326085e+01 3.75177042e+02 
        </DataArray>
      </PointData>
    </Piece>
    <Piece NumberOfPoints="16" NumberOfCells="9">
      <Points>
        <DataArray type="Float64" NumberOfComponents="3" format="ascii">
          3.00000000e+00 6.00000000e+00 0.00000000e+00 
4.00000000e+00 6.00000000e+00 0.00000000e+00 
5.00000000e+00 6.00000000e+00 0.00000000e+00 
6.00000000e+00 6.00000000e+00 0.00000000e+00 
3.00000000e+00 6.33333349e+00 0.00000000e+00 
4.00000000e+00 6.33333349e+00 0.00000000e+00 
5.00000000e+00 6.33333349e+00 0.00000000e+00 
6.00000000e+00 6.33333349e+00 0.00000000e+00 
3.00000000e+00 6.66666651e+00 0.00000000e+00 
4.00000000e+00 6.66666651e+00 0.00000000e+00 
5.00000000e+00 6.66666651e+00 0.00000000e+00 
6.00000000e+00 6.66666651e+00 0.00000000e+00 
3.00000000e+00 7.00000000e+00 0.00000000e+00 
4.00000000e+00 7.00000000e+00 0.00000000e+00 
5.00000000e+00 7.00000000e+00 0.00000000e+00 
6.00000000e+00 7.00000000e+00 0.00000000e+00 

        </DataArray>
      </Points>
      <Cells>
        <DataArray type="Int32" Name="connectivity" format="ascii">
0 1 5 4
4 5 9 8
8 9 13 12
1 2 6 5
5 6 10 9
9 10 14 13
2 3 7 6
6 7 11 10
10 11 15 14

        </DataArray>
        <DataArray type="Int32" Name="offsets" format="ascii">
4 8 12 16 20 24 28 32 36 
        </DataArray>
        <DataArray type="UInt8" Name="types" format="ascii">
9 9 9 9 9 9 9 9 9 
        </DataArray>
      </Cells>
      <PointData>
        <DataArray type="Float64" Name="u">
          0.00000000e+00 3.79258968e+01 3.79791716e+01 4.67984123e+01 0.00000000e+00 8.99941779e+00 1.29820831e+01 2.01591839e+01 0.00000000e+00 -2.24181507e+00 -4.34853161e-01 2.18184771e+00 0.00000000e+00 -6.36589360e+00 -7.41411058e+00 -9.61853461e+00 
        </DataArray>
        <DataArray type="Float64" Name="v">
          0.00000000e+00 -6.23275777e+00 -4.54707395e+00 -2.85409469e+00 0.00000000e+00 -1.32771287e+01 -7.72543610e+00 -2.31352129e+00 0.00000000e+00 -1.48929605e+01 -8.32983556e+00 -2.90151467e+00 0.00000000e+00 -1.31650818e+01 -8.80129694e+00 -4.02877795e+00 
        </DataArray>
        <DataArray type="Float64" Name="p">
          -7.54259821e+02 -4.47317924e+02 -1.40376027e+02 1.66565871e+02 -5.72227466e+02 -3.54216341e+02 -1.36205215e+02 8.18059101e+01 -3.90195111e+02 -2.61114757e+02 -1.32034404e+02 -2.95405067e+00 -2.08162755e+02 -1.68013174e+02 -1.27863593e+02 -8.77140114e+01 
        </DataArray>
      </PointData>
    </Piece>
    <Piece NumberOfPoints="16" NumberOfCells="9">
      <Points>
        <DataArray type="Float64" NumberOfComponents="3" format="ascii">
          3.00000000e+00 7.00000000e+00 0.00000000e+00 
4.00000000e+00 7.00000000e+00 0.00000000e+00 
5.00000000e+00 7.00000000e+00 0.00000000e+00 
6.00000000e+00 7.00000000e+00 0.00000000e+00 
3.00000000e+00 7.33333349e+00 0.00000000e+00 
4.00000000e+00 7.33333349e+00 0.00000000e+00 
5.00000000e+00 7.33333349e+00 0.00000000e+00 
6.00000000e+00 7.33333349e+00 0.00000000e+00 
3.00000000e+00 7.66666651e+00 0.00000000e+00 
4.00000000e+00 7.66666651e+00 0.00000000e+00 
5.00000000e+00 7.66666651e+00 0.00000000e+00 
6.00000000e+00 7.66666651e+00 0.00000000e+00 
3.00000000e+00 8.00000000e+00 0.00000000e+00 
4.00000000e+00 8.00000000e+00 0.00000000e+00 
5.00000000e+00 8.00000000e+00 0.00000000e+00 
6.00000000e+00 8.00000000e+00 0.00000000e+00 

        </DataArray>
      </Points>
      <Cells>
        <DataArray type="Int32" Name="connectivity" format="ascii">
0 1 5 4
4 5 9 8
8 9 13 12
1 2 6 5
5 6 10 9
9 10 14 13
2 3 7 6
6 7 11 10
10 11 15 14

        </DataArray>
        <DataArray type="Int32" Name="offsets" format="ascii">
4 8 12 16 20 24 28 32 36 
        </DataArray>
        <DataArray type="UInt8" Name="types" format="ascii">
9 9 9 9 9 9 9 9 9 
        </DataArray>
      </Cells>
      <PointData>
        <DataArray type="Float64" Name="u">
          0.00000000e+00 -6.36589360e+00 -7.41411058e+00 -9.61853461e+00 0.00000000e+00 -7.80016275e+00 -1.10449256e+01 -1.57451062e+01 0.00000000e+00 -7.76477208e+00 -1.20348533e+01 -1.79920922e+01 0.00000000e+00 -6.82317575e+00 -1.10296995e+01 -1.70984932e+01 
        </DataArray>
        <DataArray type="Float64" Name="v">
          0.00000000e+00 -1.31650818e+01 -8.80129694e+00 -4.02877795e+00 0.00000000e+00 -1.03398199e+01 -7.47437529e+00 -3.92938128e+00 0.00000000e+00 -7.74728386e+00 -5.85051757e+00 -3.28308373e+00 0.00000000e+00 -4.62632499e+00 -3.73626320e+00 -2.19727510e+00 
        </DataArray>
        <DataArray type="Float64" Name="p">
          -2.23724903e+02 -1.58488735e+02 -9.32525662e+01 -2.80163977e+01 -1.71035026e+02 -1.15144478e+02 -5.92539306e+01 -3.36338280e+00 -1.18345149e+02 -7.18002219e+01 -2.52552949e+01 2.12896321e+01 -6.56552718e+01 -2.84559655e+01 8.74334072e+00 4.59426470e+01 
        </DataArray>
      </PointData>
    </Piece>
    <Piece NumberOfPoints="16" NumberOfCells="9">
      <Points>
        <DataArray type="Float64" NumberOfComponents="3" format="ascii">
          3.00000000e+00 8.00000000e+00 0.00000000e+00 
4.00000000e+00 8.00000000e+00 0.00000000e+00 
5.00000000e+00 8.00000000e+00 0.00000000e+00 
6.00000000e+00 8.00000000e+00 0.00000000e+00 
3.00000000e+00 8.33333302e+00 0.00000000e+00 
4.00000000e+00 8.33333302e+00 0.00000000e+00 
5.00000000e+00 8.33333302e+00 0.00000000e+00 
6.00000000e+00 8.33333302e+00 0.00000000e+00 
3.00000000e+00 8.66666698e+00 0.00000000e+00 
4.00000000e+00 8.66666698e+00 0.00000000e+00 
5.00000000e+00 8.66666698e+00 0.00000000e+00 
6.00000000e+00 8.66666698e+00 0.00000000e+00 
3.00000000e+00 9.00000000e+00 0.00000000e+00 
4.00000000e+00 9.00000000e+00 0.00000000e+00 
5.00000000e+00 9.00000000e+00 0.00000000e+00 
6.00000000e+00 9.00000000e+00 0.00000000e+00 

        </DataArray>
      </Points>
      <Cells>
        <DataArray type="Int32" Name="connectivity" format="ascii">
0 1 5 4
4 5 9 8
8 9 13 12
1 2 6 5
5 6 10 9
9 10 14 13
2 3 7 6
6 7 11 10
10 11 15 14

        </DataArray>
        <DataArray type="Int32" Name="offsets" format="ascii">
4 8 12 16 20 24 28 32 36 
        </DataArray>
        <DataArray type="UInt8" Name="types" format="ascii">
9 9 9 9 9 9 9 9 9 
        </DataArray>
      </Cells>
      <PointData>
        <DataArray type="Float64" Name="u">
          0.00000000e+00 -6.82317575e+00 -1.10296995e+01 -1.70984932e+01 0.00000000e+00 -5.21850223e+00 -8.46778938e+00 -1.36692000e+01 0.00000000e+00 -2.96385730e+00 -4.67163385e+00 -7.91634194e+00 0.00000000e+00 0.00000000e+00 0.00000000e+00 0.00000000e+00 
        </DataArray>
        <DataArray type="Float64" Name="v">
          0.00000000e+00 -4.62632499e+00 -3.73626320e+00 -2.19727510e+00 0.00000000e+00 -2.10681265e+00 -1.80662395e+00 -1.02396096e+00 0.00000000e+00 -6.92146586e-01 -6.40969279e-01 -3.46292640e-01 0.00000000e+00 0.00000000e+00 0.00000000e+00 0.00000000e+00 
        </DataArray>
        <DataArray type="Float64" Name="p">
          -7.43283998e+01 -3.30817894e+01 8.16482102e+00 4.94114314e+01 -8.50552226e+01 -4.27300770e+01 -4.04931399e-01 4.19202142e+01 -9.57820454e+01 -5.23783646e+01 -8.97468382e+00 3.44289970e+01 -1.06508868e+02 -6.20266522e+01 -1.75444362e+01 2.69377797e+01 
        </DataArray>
      </PointData>
    </Piece>
    <Piece NumberOfPoints="16" NumberOfCells="9">
      <Points>
        <DataArray type="Float64" NumberOfComponents="3" format="ascii">
          6.00000000e+00 0.00000000e+00 0.00000000e+00 
7.00000000e+00 0.00000000e+00 0.00000000e+00 
8.00000000e+00 0.00000000e+00 0.00000000e+00 
9.00000000e+00 0.00000000e+00 0.00000000e+00 
6.00000000e+00 3.33333343e-01 0.00000000e+00 
7.00000000e+00 3.33333343e-01 0.00000000e+00 
8.00000000e+00 3.33333343e-01 0.00000000e+00 
9.00000000e+00 3.33333343e-01 0.00000000e+00 
6.00000000e+00 6.66666687e-01 0.00000000e+00 
7.00000000e+00 6.66666687e-01 0.00000000e+00 
8.00000000e+00 6.66666687e-01 0.00000000e+00 
9.00000000e+00 6.66666687e-01 0.00000000e+00 
6.00000000e+00 1.00000000e+00 0.00000000e+00 
7.00000000e+00 1.00000000e+00 0.00000000e+00 
8.00000000e+00 1.00000000e+00 0.00000000e+00 
9.00000000e+00 1.00000000e+00 0.00000000e+00 

        </DataArray>
      </Points>
      <Cells>
        <DataArray type="Int32" Name="connectivity" format="ascii">
0 1 5 4
4 5 9 8
8 9 13 12
1 2 6 5
5 6 10 9
9 10 14 13
2 3 7 6
6 7 11 10
10 11 15 14

        </DataArray>
        <DataArray type="Int32" Name="offsets" format="ascii">
4 8 12 16 20 24 28 32 36 
        </DataArray>
        <DataArray type="UInt8" Name="types" format="ascii">
9 9 9 9 9 9 9 9 9 
        </DataArray>
      </Cells>
      <PointData>
        <DataArray type="Float64" Name="u">