<?xml version="1.0"?>
<VTKFile type="UnstructuredGrid" version="0.1" byte_order="LittleEndian">
  <UnstructuredGrid>
    <Piece NumberOfPoints="16" NumberOfCells="9">
      <Points>
        <DataArray type="Float64" NumberOfComponents="3" format="ascii">
          0.00000000e+00 3.00000000e+00 0.00000000e+00 
1.00000000e+00 3.00000000e+00 0.00000000e+00 
2.00000000e+00 3.00000000e+00 0.00000000e+00 
3.00000000e+00 3.00000000e+00 0.00000000e+00 
0.00000000e+00 3.33333325e+00 0.00000000e+00 
1.00000000e+00 3.33333325e+00 0.00000000e+00 
2.00000000e+00 3.33333325e+00 0.00000000e+00 
3.00000000e+00 3.33333325e+00 0.00000000e+00 
0.00000000e+00 3.66666675e+00 0.00000000e+00 
1.00000000e+00 3.66666675e+00 0.00000000e+00 
2.00000000e+00 3.66666675e+00 0.00000000e+00 
3.00000000e+00 3.66666675e+00 0.00000000e+00 
0.00000000e+00 4.00000000e+00 0.00000000e+00 
1.00000000e+00 4.00000000e+00 0.00000000e+00 
2.00000000e+00 4.00000000e+00 0.00000000e+00 
3.00000000e+00 4.00000000e+00 0.00000000e+00 

        </DataArray>
      </Points>
      <Cells>
        <DataArray type="Int32" Name="connectivity" format="ascii">
0 1 5 4
4 5 9 8
8 9 13 12
1 2 6 5
5 6 10 9
9 10 14 13
2 3 7 6
6 7 11 10
10 11 15 14

        </DataArray>
        <DataArray type="Int32" Name="offsets" format="ascii">
4 8 12 16 20 24 28 32 36 
        </DataArray>
        <DataArray type="UInt8" Name="types" format="ascii">
9 9 9 9 9 9 9 9 9 
        </DataArray>
      </Cells>
      <PointData>
        <DataArray type="Float64" Name="u">
          0.00000000e+00 0.00000000e+00 0.00000000e+00 0.00000000e+00 8.88888889e+01 8.91082575e+01 8.74140202e+01 8.51871397e+01 1.55555556e+02 1.57222289e+02 1.53091444e+02 1.53739813e+02 2.00000000e+02 2.03534197e+02 1.97040409e+02 2.01832401e+02 
        </DataArray>
        <DataArray type="Float64" Name="v">
          0.00000000e+00 0.00000000e+00 0.00000000e+00 0.00000000e+00 0.00000000e+00 9.30992632e-04 3.56181349e-01 -6.28724070e-01 0.00000000e+00 9.63391734e-03 3.85399911e-01 -2.25169710e-01 0.00000000e+00 3.71209363e-02 2.85904993e-01 1.22605351e-02 
        </DataArray>
        <DataArray type="Float64" Name="p">
          2.27698453e+04 1.51538584e+04 7.53787154e+03 -7.81153141e+01 2.27670488e+04 1.51511462e+04 7.53524361e+03 -8.06590059e+01 2.27642524e+04 1.51484340e+04 7.53261567e+03 -8.32026976e+01 2.27614560e+04 1.51457219e+04 7.52998774e+03 -8.57463894e+01 
        </DataArray>
      </PointData>
    </Piece>
    <Piece NumberOfPoints="16" NumberOfCells="9">
      <Points>
        <DataArray type="Float64" NumberOfComponents="3" format="ascii">
          0.00000000e+00 4.00000000e+00 0.00000000e+00 
1.00000000e+00 4.00000000e+00 0.00000000e+00 
2.00000000e+00 4.00000000e+00 0.00000000e+00 
3.00000000e+00 4.00000000e+00 0.00000000e+00 
0.00000000e+00 4.33333349e+00 0.00000000e+00 
1.00000000e+00 4.33333349e+00 0.00000000e+00 
2.00000000e+00 4.33333349e+00 0.00000000e+00 
3.00000000e+00 4.33333349e+00 0.00000000e+00 
0.00000000e+00 4.66666651e+00 0.00000000e+00 
1.00000000e+00 4.66666651e+00 0.00000000e+00 
2.00000000e+00 4.66666651e+00 0.00000000e+00 
3.00000000e+00 4.66666651e+00 0.00000000e+00 
0.00000000e+00 5.00000000e+00 0.00000000e+00 
1.00000000e+00 5.00000000e+00 0.00000000e+00 
2.00000000e+00 5.00000000e+00 0.00000000e+00 
3.00000000e+00 5.00000000e+00 0.00000000e+00 

        </DataArray>
      </Points>
      <Cells>
        <DataArray type="Int32" Name="connectivity" format="ascii">
0 1 5 4
4 5 9 8
8 9 13 12
1 2 6 5
5 6 10 9
9 10 14 13
2 3 7 6
6 7 11 10
10 11 15 14

        </DataArray>
        <DataArray type="Int32" Name="offsets" format="ascii">
4 8 12 16 20 24 28 32 36 
        </DataArray>
        <DataArray type="UInt8" Name="types" format="ascii">
9 9 9 9 9 9 9 9 9 
        </DataArray>
      </Cells>
      <PointData>
        <DataArray type="Float64" Name="u">
          2.00000000e+02 2.03534197e+02 1.97040409e+02 2.01832401e+02 2.22222222e+02 2.27023557e+02 2.19090695e+02 2.26518114e+02 2.22222222e+02 2.27023557e+02 2.19090695e+02 2.26518114e+02 2.00000000e+02 2.03534197e+02 1.97040409e+02 2.01832401e+02 
        </DataArray>
        <DataArray type="Float64" Name="v">
          0.00000000e+00 3.71209363e-02 2.85904993e-01 1.22605351e-02 0.00000000e+00 1.84913687e-02 3.79595364e-02 2.67715435e-01 0.00000000e+00 -1.84913687e-02 -3.79595363e-02 -2.67715436e-01 0.00000000e+00 -3.71209363e-02 -2.85904993e-01 -1.22605356e-02 
        </DataArray>
        <DataArray type="Float64" Name="p">
          2.27601819e+04 1.51437450e+04 7.52730810e+03 -8.91288010e+01 2.27601819e+04 1.51437450e+04 7.52730810e+03 -8.91288010e+01 2.27601819e+04 1.51437450e+04 7.52730810e+03 -8.91288010e+01 2.27601819e+04 1.51437450e+04 7.52730810e+03 -8.91288010e+01 
        </DataArray>
      </PointData>
    </Piece>
    <Piece NumberOfPoints="16" NumberOfCells="9">
      <Points>
        <DataArray type="Float64" NumberOfComponents="3" format="ascii">
          0.00000000e+00 5.00000000e+00 0.00000000e+00 
1.00000000e+00 5.00000000e+00 0.00000000e+00 
2.00000000e+00 5.00000000e+00 0.00000000e+00 
3.00000000e+00 5.00000000e+00 0.00000000e+00 
0.00000000e+00 5.33333349e+00 0.00000000e+00 
1.00000000e+00 5.33333349e+00 0.00000000e+00 
2.00000000e+00 5.33333349e+00 0.00000000e+00 
3.00000000e+00 5.33333349e+00 0.00000000e+00 
0.00000000e+00 5.66666651e+00 0.00000000e+00 
1.00000000e+00 5.66666651e+00 0.00000000e+00 
2.00000000e+00 5.66666651e+00 0.00000000e+00 
3.00000000e+00 5.66666651e+00 0.00000000e+00 
0.00000000e+00 6.00000000e+00 0.00000000e+00 
1.00000000e+00 6.00000000e+00 0.00000000e+00 
2.00000000e+00 6.00000000e+00 0.00000000e+00 
3.00000000e+00 6.00000000e+00 0.00000000e+00 

        </DataArray>
      </Points>
      <Cells>
        <DataArray type="Int32" Name="connectivity" format="ascii">
0 1 5 4
4 5 9 8
8 9 13 12
1 2 6 5
5 6 10 9
9 10 14 13
2 3 7 6
6 7 11 10
10 11 15 14

        </DataArray>
        <DataArray type="Int32" Name="offsets" format="ascii">
4 8 12 16 20 24 28 32 36 
        </DataArray>
        <DataArray type="UInt8" Name="types" format="ascii">
9 9 9 9 9 9 9 9 9 
        </DataArray>
      </Cells>
      <PointData>
        <DataArray type="Float64" Name="u">
          2.00000000e+02 2.03534197e+02 1.97040409e+02 2.01832401e+02 1.55555556e+02 1.57222289e+02 1.53091444e+02 1.53739813e+02 8.88888889e+01 8.91082575e+01 8.74140202e+01 8.51871397e+01 0.00000000e+00 0.00000000e+00 0.00000000e+00 0.00000000e+00 
        </DataArray>
        <DataArray type="Float64" Name="v">
          0.00000000e+00 -3.71209363e-02 -2.85904993e-01 -1.22605356e-02 0.00000000e+00 -9.63391736e-03 -3.85399911e-01 2.25169709e-01 0.00000000e+00 -9.30992631e-04 -3.56181349e-01 6.28724070e-01 0.00000000e+00 0.00000000e+00 0.00000000e+00 0.00000000e+00 
        </DataArray>
        <DataArray type="Float64" Name="p">
          2.27614560e+04 1.51457219e+04 7.52998774e+03 -8.57463894e+01 2.27642524e+04 1.51484340e+04 7.53261567e+03 -8.32026976e+01 2.27670488e+04 1.51511462e+04 7.53524361e+03 -8.06590059e+01 2.27698453e+04 1.51538584e+04 7.53787154e+03 -7.81153141e+01 
        </DataArray>
      </PointData>
    </Piece>
    <Piece NumberOfPoints="16" NumberOfCells="9">
      <Points>
        <DataArray type="Float64" NumberOfComponents="3" format="ascii">
          3.00000000e+00 0.00000000e+00 0.00000000e+00 
4.00000000e+00 0.00000000e+00 0.00000000e+00 
5.00000000e+00 0.00000000e+00 0.00000000e+00 
6.00000000e+00 0.00000000e+00 0.00000000e+00 
3.00000000e+00 3.33333343e-01 0.00000000e+00 
4.00000000e+00 3.33333343e-01 0.00000000e+00 
5.00000000e+00 3.33333343e-01 0.00000000e+00 
6.00000000e+00 3.33333343e-01 0.00000000e+00 
3.00000000e+00 6.66666687e-01 0.00000000e+00 
4.00000000e+00 6.66666687e-01 0.00000000e+00 
5.00000000e+00 6.66666687e-01 0.00000000e+00 
6.00000000e+00 6.66666687e-01 0.00000000e+00 
3.00000000e+00 1.00000000e+00 0.00000000e+00 
4.00000000e+00 1.00000000e+00 0.00000000e+00 
5.00000000e+00 1.00000000e+00 0.00000000e+00 
6.00000000e+00 1.00000000e+00 0.00000000e+00 

        </DataArray>
      </Points>
      <Cells>
        <DataArray type="Int32" Name="connectivity" format="ascii">
0 1 5 4
4 5 9 8
8 9 13 12
1 2 6 5
5 6 10 9
9 10 14 13
2 3 7 6
6 7 11 10
10 11 15 14

        </DataArray>
        <DataArray type="Int32" Name="offsets" format="ascii">
4 8 12 16 20 24 28 32 36 
        </DataArray>
        <DataArray type="UInt8" Name="types" format="ascii">
9 9 9 9 9 9 9 9 9 
        </DataArray>
      </Cells>
      <PointData>
        <DataArray type="Float64" Name="u">
          0.00000000e+00 0.00000000e+00 0.00000000e+00 0.00000000e+00 0.00000000e+00 -1.39000852e+01 -4.56916674e+00 -4.14542991e+00 0.00000000e+00 -2.28861354e+01 -5.05394591e+00 -3.98343351e+00 0.00000000e+00 -2.70421069e+01 -1.89120432e+00 4.66257780e-01 
        </DataArray>
        <DataArray type="Float64" Name="v">
          0.00000000e+00 0.00000000e+00 0.00000000e+00 0.00000000e+00 0.00000000e+00 3.86159372e-01 -4.25503189e-04 -5.54100742e-01 0.00000000e+00 1.09713586e+00 -2.58697117e-01 -1.46741574e+00 0.00000000e+00 2.16822571e+00 -7.28538580e-01 -2.72437254e+00 
        </DataArray>
        <DataArray type="Float64" Name="p">
          -9.50814546e+02 6.60179919e+02 2.27117438e+03 3.88216885e+03 -9.35669997e+02 6.65206028e+02 2.26608205e+03 3.86695808e+03 -9.20525448e+02 6.70232138e+02 2.26098972e+03 3.85174731e+03 -9.05380898e+02 6.75258247e+02 2.25589739e+03 3.83653654e+03 
        </DataArray>
      </PointData>
    </Piece>
    <Piece NumberOfPoints="16" NumberOfCells="9">
      <Points>
        <DataArray type="Float64" NumberOfComponents="3" format="ascii">
          3.00000000e+00 1.00000000e+00 0.00000000e+00 
4.00000000e+00 1.00000000e+00 0.00000000e+00 
5.00000000e+00 1.00000000e+00 0.00000000e+00 
6.00000000e+00 1.00000000e+00 0.00000000e+00 
3.00000000e+00 1.33333337e+00 0.00000000e+00 
4.00000000e+00 1.33333337e+00 0.00000000e+00 
5.00000000e+00 1.33333337e+00 0.00000000e+00 
6.00000000e+00 1.33333337e+00 0.00000000e+00 
3.00000000e+00 1.66666663e+00 0.00000000e+00 
4.00000000e+00 1.66666663e+00 0.00000000e+00 
5.00000000e+00 1.66666663e+00 0.00000000e+00 
6.00000000e+00 1.66666663e+00 0.00000000e+00 
3.00000000e+00 2.00000000e+00 0.00000000e+00 
4.00000000e+00 2.00000000e+00 0.00000000e+00 
5.00000000e+00 2.00000000e+00 0.00000000e+00 
6.00000000e+00 2.00000000e+00 0.00000000e+00 

        </DataArray>
      </Points>
      <Cells>
        <DataArray type="Int32" Name="connectivity" format="ascii">
0 1 5 4
4 5 9 8
8 9 13 12
1 2 6 5
5 6 10 9
9 10 14 13
2 3 7 6
6 7 11 10
10 11 15 14

        </DataArray>
        <DataArray type="Int32" Name="offsets" format="ascii">
4 8 12 16 20 24 28 32 36 
        </DataArray>
        <DataArray type="UInt8" Name="types" format="ascii">
9 9 9 9 9 9 9 9 9 
        </DataArray>
      </Cells>
      <PointData>
        <DataArray type="Float64" Name="u">
          0.00000000e+00 -2.70421069e+01 -1.89120432e+00 4.66257780e-01 0.00000000e+00 -2.62636904e+01 4.50795468e+00 8.98156692e+00 0.00000000e+00 -2.00985011e+01 1.40742693e+01 2.08277706e+01 0.00000000e+00 -7.80364843e+00 2.70753566e+01 3.49063956e+01 
        </DataArray>
        <DataArray type="Float64" Name="v">
          0.00000000e+00 2.16822571e+00 -7.28538580e-01 -2.72437254e+00 0.00000000e+00 3.15063814e+00 -1.46917507e+00 -4.21511934e+00 0.00000000e+00 3.66386656e+00 -2.35791836e+00 -5.73740187e+00 0.00000000e+00 3.64607875e+00 -3.53521234e+00 -7.05795479e+00 
        </DataArray>
        <DataArray type="Float64" Name="p">
          -9.05788683e+02 6.73761102e+02 2.25331089e+03 3.83286067e+03 -9.21298615e+02 6.62432362e+02 2.24616334e+03 3.82989431e+03 -9.36808547e+02 6.51103621e+02 2.23901579e+03 3.82692796e+03 -9.52318479e+02 6.39774880e+02 2.23186824e+03 3.82396160e+03 
        </DataArray>
      </PointData>
    </Piece>
    <Piece NumberOfPoints="16" NumberOfCells="9">
      <Points>
        <DataArray type="Float64" NumberOfComponents="3" format="ascii">
          3.00000000e+00 2.00000000e+00 0.00000000e+00 
4.00000000e+00 2.00000000e+00 0.00000000e+00 
5.00000000e+00 2.00000000e+00 0.00000000e+00 
6.00000000e+00 2.00000000e+00 0.00000000e+00 
3.00000000e+00 2.33333325e+00 0.00000000e+00 
4.00000000e+00 2.33333325e+00 0.00000000e+00 
5.00000000e+00 2.33333325e+00 0.00000000e+00 
6.00000000e+00 2.33333325e+00 0.00000000e+00 
3.00000000e+00 2.66666675e+00 0.00000000e+00 
4.00000000e+00 2.66666675e+00 0.00000000e+00 
5.00000000e+00 2.66666675e+00 0.00000000e+00 
6.00000000e+00 2.66666675e+00 0.00000000e+00 
3.00000000e+00 3.00000000e+00 0.00000000e+00 
4.00000000e+00 3.00000000e+00 0.00000000e+00 
5.00000000e+00 3.00000000e+00 0.00000000e+00 
6.00000000e+00 3.00000000e+00 0.00000000e+00 

        </DataArray>
      </Points>
      <Cells>
        <DataArray type="Int32" Name="connectivity" format="ascii">
0 1 5 4
4 5 9 8
8 9 13 12
1 2 6 5
5 6 10 9
9 10 14 13
2 3 7 6
6 7 11 10
10 11 15 14

        </DataArray>
        <DataArray type="Int32" Name="offsets" format="ascii">
4 8 12 16 20 24 28 32 36 
        </DataArray>
        <DataArray type="UInt8" Name="types" format="ascii">
9 9 9 9 9 9 9 9 9 
        </DataArray>
      </Cells>
      <PointData>
        <DataArray type="Float64" Name="u">
          0.00000000e+00 -7.80364843e+00 2.70753566e+01 3.49063956e+01 0.00000000e+00 1.16270877e+01 4.38626139e+01 5.00055100e+01 0.00000000e+00 3.92146510e+01 6.41388948e+01 6.54881652e+01 0.00000000e+00 7.52477361e+01 8.59306150e+01 8.23589165e+01 
        </DataArray>
        <DataArray type="Float64" Name="v">
          0.00000000e+00 3.64607875e+00 -3.53521234e+00 -7.05795479e+00 0.00000000e+00 2.65046643e+00 -4.85025990e+00 -7.71578707e+00 0.00000000e+00 7.00729720e-02 -5.86707732e+00 -7.09052689e+00 0.00000000e+00 -4.12609257e+00 -6.64779006e+00 -5.32013016e+00 
        </DataArray>
        <DataArray type="Float64" Name="p">
          -9.47749074e+02 6.40022671e+02 2.22779442e+03 3.81556616e+03 -1.00460687e+03 6.19412076e+02 2.24343103e+03 3.86744998e+03 -1.06146468e+03 5.98801481e+02 2.25906764e+03 3.91933379e+03 -1.11832248e+03 5.78190886e+02 2.27470425e+03 3.97121761e+03 
        </DataArray>
      </PointData>
    </Piece>
    <Piece NumberOfPoints="16" NumberOfCells="9">
      <Points>
        <DataArray type="Float64" NumberOfComponents="3" format="ascii">
          3.00000000e+00 3.00000000e+00 0.00000000e+00 
4.00000000e+00 3.00000000e+00 0.00000000e+00 
5.00000000e+00 3.00000000e+00 0.00000000e+00 
6.00000000e+00 3.00000000e+00 0.00000000e+00 
3.00000000e+00 3.33333325e+00 0.00000000e+00 
4.00000000e+00 3.33333325e+00 0.00000000e+00 
5.00000000e+00 3.33333325e+00 0.00000000e+00 
6.00000000e+00 3.33333325e+00 0.00000000e+00 
3.00000000e+00 3.66666675e+00 0.00000000e+00 
4.00000000e+00 3.66666675e+00 0.00000000e+00 
5.00000000e+00 3.66666675e+00 0.00000000e+00 
6.00000000e+00 3.66666675e+00 0.00000000e+00 
3.00000000e+00 4.00000000e+00 0.00000000e+00 
4.00000000e+00 4.00000000e+00 0.00000000e+00 
5.00000000e+00 4.00000000e+00 0.00000000e+00 
6.00000000e+00 4.00000000e+00 0.00000000e+00 

        </DataArray>
      </Points>
      <Cells>
        <DataArray type="Int32" Name="connectivity" format="ascii">
0 1 5 4
4 5 9 8
8 9 13 12
1 2 6 5
5 6 10 9
9 10 14 13
2 3 7 6
6 7 11 10
10 11 15 14

        </DataArray>
        <DataArray type="Int32" Name="offsets" format="ascii">
4 8 12 16 20 24 28 32 36 
        </DataArray>
        <DataArray type="UInt8" Name="types" format="ascii">
9 9 9 9 9 9 9 9 9 
        </DataArray>
      </Cells>
      <PointData>
        <DataArray type="Float64" Name="u">
          0.00000000e+00 7.52477361e+01 8.59306150e+01 8.23589165e+01 8.51871397e+01 1.05133972e+02 1.10156893e+02 9.14876607e+01 1.53739813e+02 1.37030750e+02 1.29678010e+02 1.02297262e+02 2.01832401e+02 1.63001766e+02 1.43524963e+02 1.11304217e+02 
        </DataArray>
        <DataArray type="Float64" Name="v">
          0.00000000e+00 -4.12609257e+00 -6.64779006e+00 -5.32013016e+00 -6.28724070e-01 -7.25562178e+00 -6.59217478e+00 -2.93565328e+00 -2.25169710e-01 -7.41033424e+00 -5.81702784e+00 -1.20407844e+00 1.22605351e-02 -5.40404843e+00 -3.87174305e+00 -2.53640255e-01 
        </DataArray>
        <DataArray type="Float64" Name="p">
          -1.13357327e+03 5.76175738e+02 2.28592475e+03 3.99567376e+03 -9.94588520e+02 6.48421279e+02 2.29143108e+03 3.93444088e+03 -8.55603767e+02 7.20666821e+02 2.29693741e+03 3.87320800e+03 -7.16619013e+02 7.92912362e+02 2.30244374e+03 3.81197511e+03 
        </DataArray>
      </PointData>
    </Piece>
    <Piece NumberOfPoints="16" NumberOfCells="9">
      <Points>
        <DataArray type="Float64" NumberOfComponents="3" format="ascii">
          3.00000000e+00 4.00000000e+00 0.00000000e+00 
4.00000000e+00 4.00000000e+00 0.00000000e+00 
5.00000000e+00 4.00000000e+00 0.00000000e+00 
6.00000000e+00 4.00000000e+00 0.00000000e+00 
3.00000000e+00 4.33333349e+00 0.00000000e+00 
4.00000000e+00 4.33333349e+00 0.00000000e+00 
5.00000000e+00 4.33333349e+00 0.00000000e+00 
6.00000000e+00 4.33333349e+00 0.00000000e+00 
3.00000000e+00 4.66666651e+00 0.00000000e+00 
4.00000000e+00 4.66666651e+00 0.00000000e+00 
5.00000000e+00 4.66666651e+00 0.00000000e+00 
6.00000000e+00 4.66666651e+00 0.00000000e+00 
3.00000000e+00 5.00000000e+00 0.00000000e+00 
4.00000000e+00 5.00000000e+00 0.00000000e+00 
5.00000000e+00 5.00000000e+00 0.00000000e+00 
6.00000000e+00 5.00000000e+00 0.00000000e+00 

        </DataArray>
      </Points>
      <Cells>
        <DataArray type="Int32" Name="connectivity" format="ascii">
0 1 5 4
4 5 9 8
8 9 13 12
1 2 6 5
5 6 10 9
9 10 14 13
2 3 7 6
6 7 11 10
10 11 15 14

        </DataArray>
        <DataArray type="Int32" Name="offsets" format="ascii">
4 8 12 16 20 24 28 32 36 
        </DataArray>
        <DataArray type="UInt8" Name="types" format="ascii">
9 9 9 9 9 9 9 9 9 
        </DataArray>
      </Cells>
      <PointData>
        <DataArray type="Float64" Name="u">
          2.01832401e+02 1.63001766e+02 1.43524963e+02 1.11304217e+02 2.26518114e+02 1.77301717e+02 1.50682392e+02 1.16350404e+02 2.26518114e+02 1.77301717e+02 1.50682392e+02 1.16350404e+02 2.01832401e+02 1.63001766e+02 1.43524963e+02 1.11304217e+02 
        </DataArray>
        <DataArray type="Float64" Name="v">
          1.22605351e-02 -5.40404843e+00 -3.87174305e+00 -2.53640255e-01 2.67715435e-01 -1.56782082e+00 -1.40694618e+00 -7.90279478e-02 -2.67715436e-01 1.56782082e+00 1.40694618e+00 7.90279480e-02 -1.22605356e-02 5.40404843e+00 3.87174305e+00 2.53640255e-01 
        </DataArray>
        <DataArray type="Float64" Name="p">
          -6.45484579e+02 8.26068531e+02 2.29762164e+03 3.76917475e+03 -6.45484579e+02 8.26068531e+02 2.29762164e+03 3.76917475e+03 -6.45484579e+02 8.26068531e+02 2.29762164e+03 3.76917475e+03 -6.45484579e+02 8.26068531e+02 2.29762164e+03 3.76917475e+03 
        </DataArray>
      </PointData>
    </Piece>
    <Piece NumberOfPoints="16" NumberOfCells="9">
      <Points>
        <DataArray type="Float64" NumberOfComponents="3" format="ascii">
          3.00000000e+00 5.00000000e+00 0.00000000e+00 
4.00000000e+00 5.00000000e+00 0.00000000e+00 
5.00000000e+00 5.00000000e+00 0.00000000e+00 
6.00000000e+00 5.00000000e+00 0.00000000e+00 
3.00000000e+00 5.33333349e+00 0.00000000e+00 
4.00000000e+00 5.33333349e+00 0.00000000e+00 
5.00000000e+00 5.33333349e+00 0.00000000e+00 
6.00000000e+00 5.33333349e+00 0.00000000e+00 
3.00000000e+00 5.66666651e+00 0.00000000e+00 
4.00000000e+00 5.66666651e+00 0.00000000e+00 
5.00000000e+00 5.66666651e+00 0.00000000e+00 
6.00000000e+00 5.66666651e+00 0.00000000e+00 
3.00000000e+00 6.00000000e+00 0.00000000e+00 
4.00000000e+00 6.00000000e+00 0.00000000e+00 
5.00000000e+00 6.00000000e+00 0.00000000e+00 
6.00000000e+00 6.00000000e+00 0.00000000e+00 

        </DataArray>
      </Points>
      <Cells>
        <DataArray type="Int32" Name="connectivity" format="ascii">
0 1 5 4
4 5 9 8
8 9 13 12
1 2 6 5
5 6 10 9
9 10 14 13
2 3 7 6
6 7 11 10
10 11 15 14

        </DataArray>
        <DataArray type="Int32" Name="offsets" format="ascii">
4 8 12 16 20 24 28 32 36 
        </DataArray>
        <DataArray type="UInt8" Name="types" format="ascii">
9 9 9 9 9 9 9 9 9 
        </DataArray>
      </Cells>
      <PointData>
        <DataArray type="Float64" Name="u">
          2.01832401e+02 1.63001766e+02 1.43524963e+02 1.11304217e+02 1.53739813e+02 1.37030750e+02 1.29678010e+02 1.02297262e+02 8.51871397e+01 1.05133972e+02 1.10156893e+02 9.14876607e+01 0.00000000e+00 7.52477361e+01 8.59306150e+01 8.23589165e+01 
        </DataArray>
        <DataArray type="Float64" Name="v">
          -1.22605356e-02 5.40404843e+00 3.87174305e+00 2.53640255e-01 2.25169709e-01 7.41033424e+00 5.81702784e+00 1.20407844e+00 6.28724070e-01 7.25562178e+00 6.59217478e+00 2.93565328e+00 0.00000000e+00 4.12609257e+00 6.64779006e+00 5.32013016e+00 
        </DataArray>
        <DataArray type="Float64" Name="p">
          -7.16619013e+02 7.92912362e+02 2.30244374e+03 3.81197511e+03 -8.55603767e+02 7.20666821e+02 2.29693741e+03 3.87320800e+03 -9.94588520e+02 6.48421279e+02 2.29143108e+03 3.93444088e+03 -1.13357327e+03 5.76175738e+02 2.28592475e+03 3.99567376e+03 
        </DataArray>
      </PointData>
    </Piece>
    <Piece NumberOfPoints="16" NumberOfCells="9">
      <Points>
        <DataArray type="Float64" NumberOfComponents="3" format="ascii">
          3.00000000e+00 6.00000000e+00 0.00000000e+00 
4.00000000e+00 6.00000000e+00 0.00000000e+00 
5.00000000e+00 6.00000000e+00 0.00000000e+00 
6.00000000e+00 6.00000000e+00 0.00000000e+00 
3.00000000e+00 6.33333349e+00 0.00000000e+00 
4.00000000e+00 6.33333349e+00 0.00000000e+00 
5.00000000e+00 6.33333349e+00 0.00000000e+00 
6.00000000e+00 6.33333349e+00 0.00000000e+00 
3.00000000e+00 6.66666651e+00 0.00000000e+00 
4.00000000e+00 6.66666651e+00 0.00000000e+00 
5.00000000e+00 6.66666651e+00 0.00000000e+00 
6.00000000e+00 6.66666651e+00 0.00000000e+00 
3.00000000e+00 7.00000000e+00 0.00000000e+00 
4.00000000e+00 7.00000000e+00 0.00000000e+00 
5.00000000e+00 7.00000000e+00 0.00000000e+00 
6.00000000e+00 7.00000000e+00 0.00000000e+00 

        </DataArray>
      </Points>
      <Cells>
        <DataArray type="Int32" Name="connectivity" format="ascii">
0 1 5 4
4 5 9 8
8 9 13 12
1 2 6 5
5 6 10 9
9 10 14 13
2 3 7 6
6 7 11 10
10 11 15 14

        </DataArray>
        <DataArray type="Int32" Name="offsets" format="ascii">
4 8 12 16 20 24 28 32 36 
        </DataArray>
        <DataArray type="UInt8" Name="types" format="ascii">
9 9 9 9 9 9 9 9 9 
        </DataArray>
      </Cells>
      <PointData>
        <DataArray type="Float64" Name="u">
          0.00000000e+00 7.52477361e+01 8.59306150e+01 8.23589165e+01 0.00000000e+00 3.92146510e+01 6.41388948e+01 6.54881652e+01 0.00000000e+00 1.16270877e+01 4.38626139e+01 5.00055100e+01 0.00000000e+00 -7.80364843e+00 2.70753566e+01 3.49063956e+01 
        </DataArray>
        <DataArray type="Float64" Name="v">
          0.00000000e+00 4.12609257e+00 6.64779006e+00 5.32013016e+00 0.00000000e+00 -7.00729721e-02 5.86707732e+00 7.09052689e+00 0.00000000e+00 -2.65046643e+00 4.85025990e+00 7.71578707e+00 0.00000000e+00 -3.64607875e+00 3.53521234e+00 7.05795479e+00 
        </DataArray>
        <DataArray type="Float64" Name="p">
          -1.11832248e+03 5.78190886e+02 2.27470425e+03 3.97121761e+03 -1.06146468e+03 5.98801481e+02 2.25906764e+03 3.91933379e+03 -1.00460687e+03 6.19412076e+02 2.24343103e+03 3.86744998e+03 -9.47749074e+02 6.40022671e+02 2.22779442e+03 3.81556616e+03 
        </DataArray>
      </PointData>
    </Piece>
    <Piece NumberOfPoints="16" NumberOfCells="9">
      <Points>
        <DataArray type="Float64" NumberOfComponents="3" format="ascii">
          3.00000000e+00 7.00000000e+00 0.00000000e+00 
4.00000000e+00 7.00000000e+00 0.00000000e+00 
5.00000000e+00 7.00000000e+00 0.00000000e+00 
6.00000000e+00 7.00000000e+00 0.00000000e+00 
3.00000000e+00 7.33333349e+00 0.00000000e+00 
4.00000000e+00 7.33333349e+00 0.00000000e+00 
5.00000000e+00 7.33333349e+00 0.00000000e+00 
6.00000000e+00 7.33333349e+00 0.00000000e+00 
3.00000000e+00 7.66666651e+00 0.00000000e+00 
4.00000000e+00 7.66666651e+00 0.00000000e+00 
5.00000000e+00 7.66666651e+00 0.00000000e+00 
6.00000000e+00 7.66666651e+00 0.00000000e+00 
3.00000000e+00 8.00000000e+00 0.00000000e+00 
4.00000000e+00 8.00000000e+00 0.00000000e+00 
5.00000000e+00 8.00000000e+00 0.00000000e+00 
6.00000000e+00 8.00000000e+00 0.00000000e+00 

        </DataArray>
      </Points>
      <Cells>
        <DataArray type="Int32" Name="connectivity" format="ascii">
0 1 5 4
4 5 9 8
8 9 13 12
1 2 6 5
5 6 10 9
9 10 14 13
2 3 7 6
6 7 11 10
10 11 15 14

        </DataArray>
        <DataArray type="Int32" Name="offsets" format="ascii">
4 8 12 16 20 24 28 32 36 
        </DataArray>
        <DataArray type="UInt8" Name="types" format="ascii">
9 9 9 9 9 9 9 9 9 
        </DataArray>
      </Cells>
      <PointData>
        <DataArray type="Float64" Name="u">
          0.00000000e+00 -7.80364843e+00 2.70753566e+01 3.49063956e+01 0.00000000e+00 -2.00985011e+01 1.40742693e+01 2.08277706e+01 0.00000000e+00 -2.62636904e+01 4.50795468e+00 8.98156692e+00 0.00000000e+00 -2.70421069e+01 -1.89120432e+00 4.66257779e-01 
        </DataArray>
        <DataArray type="Float64" Name="v">
          0.00000000e+00 -3.64607875e+00 3.53521234e+00 7.05795479e+00 0.00000000e+00 -3.66386656e+00 2.35791836e+00 5.73740187e+00 0.00000000e+00 -3.15063814e+00 1.46917507e+00 4.21511934e+00 0.00000000e+00 -2.16822571e+00 7.28538580e-01 2.72437254e+00 
        </DataArray>
        <DataArray type="Float64" Name="p">
          -9.52318479e+02 6.39774880e+02 2.23186824e+03 3.82396160e+03 -9.36808547e+02 6.51103621e+02 2.23901579e+03 3.82692796e+03 -9.21298615e+02 6.62432362e+02 2.24616334e+03 3.82989431e+03 -9.05788683e+02 6.73761102e+02 2.25331089e+03 3.83286067e+03 
        </DataArray>
      </PointData>
    </Piece>
    <Piece NumberOfPoints="16" NumberOfCells="9">
      <Points>
        <DataArray type="Float64" NumberOfComponents="3" format="ascii">
          3.00000000e+00 8.00000000e+00 0.00000000e+00 
4.00000000e+00 8.00000000e+00 0.00000000e+00 
5.00000000e+00 8.00000000e+00 0.00000000e+00 
6.00000000e+00 8.00000000e+00 0.00000000e+00 
3.00000000e+00 8.33333302e+00 0.00000000e+00 
4.00000000e+00 8.33333302e+00 0.00000000e+00 
5.00000000e+00 8.33333302e+00 0.00000000e+00 
6.00000000e+00 8.33333302e+00 0.00000000e+00 
3.00000000e+00 8.66666698e+00 0.00000000e+00 
4.00000000e+00 8.66666698e+00 0.00000000e+00 
5.00000000e+00 8.66666698e+00 0.00000000e+00 
6.00000000e+00 8.66666698e+00 0.00000000e+00 
3.00000000e+00 9.00000000e+00 0.00000000e+00 
4.00000000e+00 9.00000000e+00 0.00000000e+00 
5.00000000e+00 9.00000000e+00 0.00000000e+00 
6.00000000e+00 9.00000000e+00 0.00000000e+00 

        </DataArray>
      </Points>
      <Cells>
        <DataArray type="Int32" Name="connectivity" format="ascii">
0 1 5 4
4 5 9 8
8 9 13 12
1 2 6 5
5 6 10 9
9 10 14 13
2 3 7 6
6 7 11 10
10 11 15 14

        </DataArray>
        <DataArray type="Int32" Name="offsets" format="ascii">
4 8 12 16 20 24 28 32 36 
        </DataArray>
        <DataArray type="UInt8" Name="types" format="ascii">
9 9 9 9 9 9 9 9 9 
        </DataArray>
      </Cells>
      <PointData>
        <DataArray type="Float64" Name="u">
          0.00000000e+00 -2.70421069e+01 -1.89120432e+00 4.66257779e-01 0.00000000e+00 -2.28861354e+01 -5.05394591e+00 -3.98343351e+00 0.00000000e+00 -1.39000852e+01 -4.56916674e+00 -4.14542991e+00 0.00000000e+00 0.00000000e+00 0.00000000e+00 0.00000000e+00 
        </DataArray>
        <DataArray type="Float64" Name="v">
          0.00000000e+00 -2.16822571e+00 7.28538580e-01 2.72437254e+00 0.00000000e+00 -1.09713586e+00 2.58697117e-01 1.46741574e+00 0.00000000e+00 -3.86159372e-01 4.25503193e-04 5.54100742e-01 0.00000000e+00 0.00000000e+00 0.00000000e+00 0.00000000e+00 
        </DataArray>
        <DataArray type="Float64" Name="p">
          -9.05380898e+02 6.75258247e+02 2.25589739e+03 3.83653654e+03 -9.20525448e+02 6.70232138e+02 2.26098972e+03 3.85174731e+03 -9.35669997e+02 6.65206028e+02 2.26608205e+03 3.86695808e+03 -9.50814546e+02 6.60179919e+02 2.27117438e+03 3.88216885e+03 
        </DataArray>
      </PointData>
    </Piece>
    <Piece NumberOfPoints="16" NumberOfCells="9">
      <Points>
        <DataArray type="Float64" NumberOfComponents="3" format="ascii">
          6.00000000e+00 0.00000000e+00 0.00000000e+00 
7.00000000e+00 0.00000000e+00 0.00000000e+00 
8.00000000e+00 0.00000000e+00 0.00000000e+00 
9.00000000e+00 0.00000000e+00 0.00000000e+00 
6.00000000e+00 3.33333343e-01 0.00000000e+00 
7.00000000e+00 3.33333343e-01 0.00000000e+00 
8.00000000e+00 3.33333343e-01 0.00000000e+00 
9.00000000e+00 3.33333343e-01 0.00000000e+00 
6.00000000e+00 6.66666687e-01 0.00000000e+00 
7.00000000e+00 6.66666687e-01 0.00000000e+00 
8.00000000e+00 6.66666687e-01 0.00000000e+00 
9.00000000e+00 6.66666687e-01 0.00000000e+00 
6.00000000e+00 1.00000000e+00 0.00000000e+00 
7.00000000e+00 1.00000000e+00 0.00000000e+00 
8.00000000e+00 1.00000000e+00 0.00000000e+00 
9.00000000e+00 1.00000000e+00 0.00000000e+00 

        </DataArray>
      </Points>
      <Cells>
        <DataArray type="Int32" Name="connectivity" format="ascii">
0 1 5 4
4 5 9 8
8 9 13 12
1 2 6 5
5 6 10 9
9 10 14 13
2 3 7 6
6 7 11 10
10 11 15 14

        </DataArray>
        <DataArray type="Int32" Name="offsets" format="ascii">
4 8 12 16 20 24 28 32 36 
        </DataArray>
        <DataArray type="UInt8" Name="types" format="ascii">
9 9 9 9 9 9 9 9 9 
        </DataArray>
      </Cells>
      <PointData>
        <DataArray type="Float64" Name="u">
          0.00000000e+00 0.00000000e+00 0.00000000e+00 0.00000000e+00 -4.14542991e+00 5.19214392e+00 1.55308350e+00 1.14234876e+01 -3.98343351e+00 1.15894248e+01 5.30918797e+00 2.07776381e+01 4.66257780e-01 1.92181642e+01 1.10370644e+01 2.86387219e+01 
        </DataArray>
        <DataArray type="Float64" Name="v">