<?xml version="1.0"?>
<VTKFile type="UnstructuredGrid" version="0.1" byte_order="LittleEndian">
  <UnstructuredGrid>
    <Piece NumberOfPoints="16" NumberOfCells="9">
      <Points>
        <DataArray type="Float64" NumberOfComponents="3" format="ascii">
          0.00000000e+00 3.00000000e+00 0.00000000e+00 
1.00000000e+00 3.00000000e+00 0.00000000e+00 
2.00000000e+00 3.00000000e+00 0.00000000e+00 
3.00000000e+00 3.00000000e+00 0.00000000e+00 
0.00000000e+00 3.33333325e+00 0.00000000e+00 
1.00000000e+00 3.33333325e+00 0.00000000e+00 
2.00000000e+00 3.33333325e+00 0.00000000e+00 
3.00000000e+00 3.33333325e+00 0.00000000e+00 
0.00000000e+00 3.66666675e+00 0.00000000e+00 
1.00000000e+00 3.66666675e+00 0.00000000e+00 
2.00000000e+00 3.66666675e+00 0.00000000e+00 
3.00000000e+00 3.66666675e+00 0.00000000e+00 
0.00000000e+00 4.00000000e+00 0.00000000e+00 
1.00000000e+00 4.00000000e+00 0.00000000e+00 
2.00000000e+00 4.00000000e+00 0.00000000e+00 
3.00000000e+00 4.00000000e+00 0.00000000e+00 

        </DataArray>
      </Points>
      <Cells>
        <DataArray type="Int32" Name="connectivity" format="ascii">
0 1 5 4
4 5 9 8
8 9 13 12
1 2 6 5
5 6 10 9
9 10 14 13
2 3 7 6
6 7 11 10
10 11 15 14

        </DataArray>
        <DataArray type="Int32" Name="offsets" format="ascii">
4 8 12 16 20 24 28 32 36 
        </DataArray>
        <DataArray type="UInt8" Name="types" format="ascii">
9 9 9 9 9 9 9 9 9 
        </DataArray>
      </Cells>
      <PointData>
        <DataArray type="Float64" Name="u">
          0.00000000e+00 0.00000000e+00 0.00000000e+00 0.00000000e+00 8.88888889e+01 9.26295396e+01 9.11596126e+01 1.01150674e+02 1.55555556e+02 1.58892805e+02 1.58409466e+02 1.65031215e+02 2.00000000e+02 2.01866281e+02 2.02175402e+02 2.05907662e+02 
        </DataArray>
        <DataArray type="Float64" Name="v">
          0.00000000e+00 0.00000000e+00 0.00000000e+00 0.00000000e+00 0.00000000e+00 -9.72338311e-01 -1.44251132e+00 -4.02385769e+00 0.00000000e+00 -8.40920364e-01 -2.09068866e+00 -3.94687279e+00 0.00000000e+00 -2.06798580e+00 -3.73816664e+00 -6.28820844e+00 
        </DataArray>
        <DataArray type="Float64" Name="p">
          1.85976590e+03 6.00572597e+02 -6.58620710e+02 -1.91781402e+03 1.87344365e+03 6.36030201e+02 -6.01383244e+02 -1.83879669e+03 1.88712139e+03 6.71487806e+02 -5.44145779e+02 -1.75977936e+03 1.90079913e+03 7.06945410e+02 -4.86908313e+02 -1.68076204e+03 
        </DataArray>
      </PointData>
    </Piece>
    <Piece NumberOfPoints="16" NumberOfCells="9">
      <Points>
        <DataArray type="Float64" NumberOfComponents="3" format="ascii">
          0.00000000e+00 4.00000000e+00 0.00000000e+00 
1.00000000e+00 4.00000000e+00 0.00000000e+00 
2.00000000e+00 4.00000000e+00 0.00000000e+00 
3.00000000e+00 4.00000000e+00 0.00000000e+00 
0.00000000e+00 4.33333349e+00 0.00000000e+00 
1.00000000e+00 4.33333349e+00 0.00000000e+00 
2.00000000e+00 4.33333349e+00 0.00000000e+00 
3.00000000e+00 4.33333349e+00 0.00000000e+00 
0.00000000e+00 4.66666651e+00 0.00000000e+00 
1.00000000e+00 4.66666651e+00 0.00000000e+00 
2.00000000e+00 4.66666651e+00 0.00000000e+00 
3.00000000e+00 4.66666651e+00 0.00000000e+00 
0.00000000e+00 5.00000000e+00 0.00000000e+00 
1.00000000e+00 5.00000000e+00 0.00000000e+00 
2.00000000e+00 5.00000000e+00 0.00000000e+00 
3.00000000e+00 5.00000000e+00 0.00000000e+00 

        </DataArray>
      </Points>
      <Cells>
        <DataArray type="Int32" Name="connectivity" format="ascii">
0 1 5 4
4 5 9 8
8 9 13 12
1 2 6 5
5 6 10 9
9 10 14 13
2 3 7 6
6 7 11 10
10 11 15 14

        </DataArray>
        <DataArray type="Int32" Name="offsets" format="ascii">
4 8 12 16 20 24 28 32 36 
        </DataArray>
        <DataArray type="UInt8" Name="types" format="ascii">
9 9 9 9 9 9 9 9 9 
        </DataArray>
      </Cells>
      <PointData>
        <DataArray type="Float64" Name="u">
          2.00000000e+02 2.01866281e+02 2.02175402e+02 2.05907662e+02 2.22222222e+02 2.22653680e+02 2.22895064e+02 2.23809471e+02 2.22222222e+02 2.21091109e+02 2.21242572e+02 2.19302347e+02 2.00000000e+02 1.97529843e+02 1.97847519e+02 1.93035503e+02 
        </DataArray>
        <DataArray type="Float64" Name="v">
          0.00000000e+00 -2.06798580e+00 -3.73816664e+00 -6.28820844e+00 0.00000000e+00 -2.36554114e+00 -4.47765130e+00 -6.26299753e+00 0.00000000e+00 -2.39469303e+00 -4.36845677e+00 -6.44747253e+00 0.00000000e+00 -1.85159111e+00 -3.72210110e+00 -5.30068510e+00 
        </DataArray>
        <DataArray type="Float64" Name="p">
          1.92765511e+03 7.37108317e+02 -4.53438481e+02 -1.64398528e+03 2.10452704e+03 9.03530110e+02 -2.97466819e+02 -1.49846375e+03 2.28139896e+03 1.06995190e+03 -1.41495157e+02 -1.35294222e+03 2.45827089e+03 1.23637370e+03 1.44765048e+01 -1.20742069e+03 
        </DataArray>
      </PointData>
    </Piece>
    <Piece NumberOfPoints="16" NumberOfCells="9">
      <Points>
        <DataArray type="Float64" NumberOfComponents="3" format="ascii">
          0.00000000e+00 5.00000000e+00 0.00000000e+00 
1.00000000e+00 5.00000000e+00 0.00000000e+00 
2.00000000e+00 5.00000000e+00 0.00000000e+00 
3.00000000e+00 5.00000000e+00 0.00000000e+00 
0.00000000e+00 5.33333349e+00 0.00000000e+00 
1.00000000e+00 5.33333349e+00 0.00000000e+00 
2.00000000e+00 5.33333349e+00 0.00000000e+00 
3.00000000e+00 5.33333349e+00 0.00000000e+00 
0.00000000e+00 5.66666651e+00 0.00000000e+00 
1.00000000e+00 5.66666651e+00 0.00000000e+00 
2.00000000e+00 5.66666651e+00 0.00000000e+00 
3.00000000e+00 5.66666651e+00 0.00000000e+00 
0.00000000e+00 6.00000000e+00 0.00000000e+00 
1.00000000e+00 6.00000000e+00 0.00000000e+00 
2.00000000e+00 6.00000000e+00 0.00000000e+00 
3.00000000e+00 6.00000000e+00 0.00000000e+00 

        </DataArray>
      </Points>
      <Cells>
        <DataArray type="Int32" Name="connectivity" format="ascii">
0 1 5 4
4 5 9 8
8 9 13 12
1 2 6 5
5 6 10 9
9 10 14 13
2 3 7 6
6 7 11 10
10 11 15 14

        </DataArray>
        <DataArray type="Int32" Name="offsets" format="ascii">
4 8 12 16 20 24 28 32 36 
        </DataArray>
        <DataArray type="UInt8" Name="types" format="ascii">
9 9 9 9 9 9 9 9 9 
        </DataArray>
      </Cells>
      <PointData>
        <DataArray type="Float64" Name="u">
          2.00000000e+02 1.97529843e+02 1.97847519e+02 1.93035503e+02 1.55555556e+02 1.52348976e+02 1.52984208e+02 1.46087329e+02 8.88888889e+01 8.60040708e+01 8.67428672e+01 7.86568527e+01 0.00000000e+00 0.00000000e+00 0.00000000e+00 0.00000000e+00 
        </DataArray>
        <DataArray type="Float64" Name="v">
          0.00000000e+00 -1.85159111e+00 -3.72210110e+00 -5.30068510e+00 0.00000000e+00 -7.44552891e-01 -1.97075756e+00 -3.28605016e+00 0.00000000e+00 -7.24733764e-01 -1.69793179e+00 -1.66292121e+00 0.00000000e+00 0.00000000e+00 0.00000000e+00 0.00000000e+00 
        </DataArray>
        <DataArray type="Float64" Name="p">
          2.46597668e+03 1.25944210e+03 5.29075266e+01 -1.15362705e+03 2.49739488e+03 1.29720266e+03 9.70104351e+01 -1.10318179e+03 2.52881308e+03 1.33496321e+03 1.41113344e+02 -1.05273653e+03 2.56023128e+03 1.37272377e+03 1.85216252e+02 -1.00229126e+03 
        </DataArray>
      </PointData>
    </Piece>
    <Piece NumberOfPoints="16" NumberOfCells="9">
      <Points>
        <DataArray type="Float64" NumberOfComponents="3" format="ascii">
          3.00000000e+00 0.00000000e+00 0.00000000e+00 
4.00000000e+00 0.00000000e+00 0.00000000e+00 
5.00000000e+00 0.00000000e+00 0.00000000e+00 
6.00000000e+00 0.00000000e+00 0.00000000e+00 
3.00000000e+00 3.33333343e-01 0.00000000e+00 
4.00000000e+00 3.33333343e-01 0.00000000e+00 
5.00000000e+00 3.33333343e-01 0.00000000e+00 
6.00000000e+00 3.33333343e-01 0.00000000e+00 
3.00000000e+00 6.66666687e-01 0.00000000e+00 
4.00000000e+00 6.66666687e-01 0.00000000e+00 
5.00000000e+00 6.66666687e-01 0.00000000e+00 
6.00000000e+00 6.66666687e-01 0.00000000e+00 
3.00000000e+00 1.00000000e+00 0.00000000e+00 
4.00000000e+00 1.00000000e+00 0.00000000e+00 
5.00000000e+00 1.00000000e+00 0.00000000e+00 
6.00000000e+00 1.00000000e+00 0.00000000e+00 

        </DataArray>
      </Points>
      <Cells>
        <DataArray type="Int32" Name="connectivity" format="ascii">
0 1 5 4
4 5 9 8
8 9 13 12
1 2 6 5
5 6 10 9
9 10 14 13
2 3 7 6
6 7 11 10
10 11 15 14

        </DataArray>
        <DataArray type="Int32" Name="offsets" format="ascii">
4 8 12 16 20 24 28 32 36 
        </DataArray>
        <DataArray type="UInt8" Name="types" format="ascii">
9 9 9 9 9 9 9 9 9 
        </DataArray>
      </Cells>
      <PointData>
        <DataArray type="Float64" Name="u">
          0.00000000e+00 0.00000000e+00 0.00000000e+00 0.00000000e+00 0.00000000e+00 -4.13666076e+00 -6.65203407e+00 -1.21400932e+01 0.00000000e+00 -7.07644847e+00 -1.16919531e+01 -2.07214039e+01 0.00000000e+00 -8.77964713e+00 -1.43371121e+01 -2.37590837e+01 
        </DataArray>
        <DataArray type="Float64" Name="v">
          0.00000000e+00 0.00000000e+00 0.00000000e+00 0.00000000e+00 0.00000000e+00 9.84674790e-01 1.05042433e+00 8.07898594e-01 0.00000000e+00 2.88772602e+00 2.90611092e+00 1.87773500e+00 0.00000000e+00 6.19741121e+00 6.19420179e+00 3.60635270e+00 
        </DataArray>
        <DataArray type="Float64" Name="p">
          -2.36252396e+03 -2.29534785e+03 -2.22817174e+03 -2.16099563e+03 -2.35011882e+03 -2.28369975e+03 -2.21728068e+03 -2.15086161e+03 -2.33771367e+03 -2.27205164e+03 -2.20638961e+03 -2.14072758e+03 -2.32530853e+03 -2.26040354e+03 -2.19549855e+03 -2.13059356e+03 
        </DataArray>
      </PointData>
    </Piece>
    <Piece NumberOfPoints="16" NumberOfCells="9">
      <Points>
        <DataArray type="Float64" NumberOfComponents="3" format="ascii">
          3.00000000e+00 1.00000000e+00 0.00000000e+00 
4.00000000e+00 1.00000000e+00 0.00000000e+00 
5.00000000e+00 1.00000000e+00 0.00000000e+00 
6.00000000e+00 1.00000000e+00 0.00000000e+00 
3.00000000e+00 1.33333337e+00 0.00000000e+00 
4.00000000e+00 1.33333337e+00 0.00000000e+00 
5.00000000e+00 1.33333337e+00 0.00000000e+00 
6.00000000e+00 1.33333337e+00 0.00000000e+00 
3.00000000e+00 1.66666663e+00 0.00000000e+00 
4.00000000e+00 1.66666663e+00 0.00000000e+00 
5.00000000e+00 1.66666663e+00 0.00000000e+00 
6.00000000e+00 1.66666663e+00 0.00000000e+00 
3.00000000e+00 2.00000000e+00 0.00000000e+00 
4.00000000e+00 2.00000000e+00 0.00000000e+00 
5.00000000e+00 2.00000000e+00 0.00000000e+00 
6.00000000e+00 2.00000000e+00 0.00000000e+00 

        </DataArray>
      </Points>
      <Cells>
        <DataArray type="Int32" Name="connectivity" format="ascii">
0 1 5 4
4 5 9 8
8 9 13 12
1 2 6 5
5 6 10 9
9 10 14 13
2 3 7 6
6 7 11 10
10 11 15 14

        </DataArray>
        <DataArray type="Int32" Name="offsets" format="ascii">
4 8 12 16 20 24 28 32 36 
        </DataArray>
        <DataArray type="UInt8" Name="types" format="ascii">
9 9 9 9 9 9 9 9 9 
        </DataArray>
      </Cells>
      <PointData>
        <DataArray type="Float64" Name="u">
          0.00000000e+00 -8.77964713e+00 -1.43371121e+01 -2.37590837e+01 0.00000000e+00 -9.18360210e+00 -1.39027402e+01 -2.08404095e+01 0.00000000e+00 -8.15929091e+00 -1.00761946e+01 -1.17051848e+01 0.00000000e+00 -5.17899865e+00 -2.33538670e+00 3.94875349e+00 
        </DataArray>
        <DataArray type="Float64" Name="v">
          0.00000000e+00 6.19741121e+00 6.19420179e+00 3.60635270e+00 0.00000000e+00 9.95849922e+00 9.18076209e+00 4.49301278e+00 0.00000000e+00 1.27782064e+01 1.09107742e+01 4.07256475e+00 0.00000000e+00 1.52225145e+01 1.09348512e+01 1.45813228e+00 
        </DataArray>
        <DataArray type="Float64" Name="p">
          -2.31454951e+03 -2.26039524e+03 -2.20624097e+03 -2.15208670e+03 -2.35769210e+03 -2.31514938e+03 -2.27260665e+03 -2.23006393e+03 -2.40083469e+03 -2.36990351e+03 -2.33897233e+03 -2.30804115e+03 -2.44397729e+03 -2.42465765e+03 -2.40533802e+03 -2.38601838e+03 
        </DataArray>
      </PointData>
    </Piece>
    <Piece NumberOfPoints="16" NumberOfCells="9">
      <Points>
        <DataArray type="Float64" NumberOfComponents="3" format="ascii">
          3.00000000e+00 2.00000000e+00 0.00000000e+00 
4.00000000e+00 2.00000000e+00 0.00000000e+00 
5.00000000e+00 2.00000000e+00 0.00000000e+00 
6.00000000e+00 2.00000000e+00 0.00000000e+00 
3.00000000e+00 2.33333325e+00 0.00000000e+00 
4.00000000e+00 2.33333325e+00 0.00000000e+00 
5.00000000e+00 2.33333325e+00 0.00000000e+00 
6.00000000e+00 2.33333325e+00 0.00000000e+00 
3.00000000e+00 2.66666675e+00 0.00000000e+00 
4.00000000e+00 2.66666675e+00 0.00000000e+00 
5.00000000e+00 2.66666675e+00 0.00000000e+00 
6.00000000e+00 2.66666675e+00 0.00000000e+00 
3.00000000e+00 3.00000000e+00 0.00000000e+00 
4.00000000e+00 3.00000000e+00 0.00000000e+00 
5.00000000e+00 3.00000000e+00 0.00000000e+00 
6.00000000e+00 3.00000000e+00 0.00000000e+00 

        </DataArray>
      </Points>
      <Cells>
        <DataArray type="Int32" Name="connectivity" format="ascii">
0 1 5 4
4 5 9 8
8 9 13 12
1 2 6 5
5 6 10 9
9 10 14 13
2 3 7 6
6 7 11 10
10 11 15 14

        </DataArray>
        <DataArray type="Int32" Name="offsets" format="ascii">
4 8 12 16 20 24 28 32 36 
        </DataArray>
        <DataArray type="UInt8" Name="types" format="ascii">
9 9 9 9 9 9 9 9 9 
        </DataArray>
      </Cells>
      <PointData>
        <DataArray type="Float64" Name="u">
          0.00000000e+00 -5.17899865e+00 -2.33538670e+00 3.94875349e+00 0.00000000e+00 1.15253939e+00 9.93586559e+00 2.76415162e+01 0.00000000e+00 1.74951511e+01 3.24570305e+01 5.85065101e+01 0.00000000e+00 5.80199304e+01 7.26199348e+01 9.94859767e+01 
        </DataArray>
        <DataArray type="Float64" Name="v">
          0.00000000e+00 1.52225145e+01 1.09348512e+01 1.45813228e+00 0.00000000e+00 1.58478477e+01 6.96339601e+00 -4.61108196e+00 0.00000000e+00 1.12733229e+01 2.16347007e+00 -9.06878629e+00 0.00000000e+00 -1.57015245e+00 -7.51690922e+00 -1.34348554e+01 
        </DataArray>
        <DataArray type="Float64" Name="p">
          -2.40625666e+03 -2.43413204e+03 -2.46200741e+03 -2.48988278e+03 -2.62929041e+03 -2.52359455e+03 -2.41789869e+03 -2.31220284e+03 -2.85232415e+03 -2.61305707e+03 -2.37378998e+03 -2.13452289e+03 -3.07535789e+03 -2.70251958e+03 -2.32968127e+03 -1.95684295e+03 
        </DataArray>
      </PointData>
    </Piece>
    <Piece NumberOfPoints="16" NumberOfCells="9">
      <Points>
        <DataArray type="Float64" NumberOfComponents="3" format="ascii">
          3.00000000e+00 3.00000000e+00 0.00000000e+00 
4.00000000e+00 3.00000000e+00 0.00000000e+00 
5.00000000e+00 3.00000000e+00 0.00000000e+00 
6.00000000e+00 3.00000000e+00 0.00000000e+00 
3.00000000e+00 3.33333325e+00 0.00000000e+00 
4.00000000e+00 3.33333325e+00 0.00000000e+00 
5.00000000e+00 3.33333325e+00 0.00000000e+00 
6.00000000e+00 3.33333325e+00 0.00000000e+00 
3.00000000e+00 3.66666675e+00 0.00000000e+00 
4.00000000e+00 3.66666675e+00 0.00000000e+00 
5.00000000e+00 3.66666675e+00 0.00000000e+00 
6.00000000e+00 3.66666675e+00 0.00000000e+00 
3.00000000e+00 4.00000000e+00 0.00000000e+00 
4.00000000e+00 4.00000000e+00 0.00000000e+00 
5.00000000e+00 4.00000000e+00 0.00000000e+00 
6.00000000e+00 4.00000000e+00 0.00000000e+00 

        </DataArray>
      </Points>
      <Cells>
        <DataArray type="Int32" Name="connectivity" format="ascii">
0 1 5 4
4 5 9 8
8 9 13 12
1 2 6 5
5 6 10 9
9 10 14 13
2 3 7 6
6 7 11 10
10 11 15 14

        </DataArray>
        <DataArray type="Int32" Name="offsets" format="ascii">
4 8 12 16 20 24 28 32 36 
        </DataArray>
        <DataArray type="UInt8" Name="types" format="ascii">
9 9 9 9 9 9 9 9 9 
        </DataArray>
      </Cells>
      <PointData>
        <DataArray type="Float64" Name="u">
          0.00000000e+00 5.80199304e+01 7.26199348e+01 9.94859767e+01 1.01150674e+02 1.11731129e+02 1.26000259e+02 1.40110547e+02 1.65031215e+02 1.65521201e+02 1.72934253e+02 1.77566284e+02 2.05907662e+02 2.01126692e+02 2.04395473e+02 2.00328656e+02 
        </DataArray>
        <DataArray type="Float64" Name="v">
          0.00000000e+00 -1.57015245e+00 -7.51690922e+00 -1.34348554e+01 -4.02385769e+00 -1.30006263e+01 -1.55710657e+01 -1.60495742e+01 -3.94687279e+00 -1.32716016e+01 -1.72817380e+01 -1.81771908e+01 -6.28820844e+00 -1.38523332e+01 -1.80733856e+01 -2.14279408e+01 
        </DataArray>
        <DataArray type="Float64" Name="p">
          -3.22889180e+03 -2.77213302e+03 -2.31537423e+03 -1.85861545e+03 -2.66538388e+03 -2.42353305e+03 -2.18168222e+03 -1.93983140e+03 -2.10187595e+03 -2.07493308e+03 -2.04799021e+03 -2.02104735e+03 -1.53836802e+03 -1.72633311e+03 -1.91429820e+03 -2.10226330e+03 
        </DataArray>
      </PointData>
    </Piece>
    <Piece NumberOfPoints="16" NumberOfCells="9">
      <Points>
        <DataArray type="Float64" NumberOfComponents="3" format="ascii">
          3.00000000e+00 4.00000000e+00 0.00000000e+00 
4.00000000e+00 4.00000000e+00 0.00000000e+00 
5.00000000e+00 4.00000000e+00 0.00000000e+00 
6.00000000e+00 4.00000000e+00 0.00000000e+00 
3.00000000e+00 4.33333349e+00 0.00000000e+00 
4.00000000e+00 4.33333349e+00 0.00000000e+00 
5.00000000e+00 4.33333349e+00 0.00000000e+00 
6.00000000e+00 4.33333349e+00 0.00000000e+00 
3.00000000e+00 4.66666651e+00 0.00000000e+00 
4.00000000e+00 4.66666651e+00 0.00000000e+00 
5.00000000e+00 4.66666651e+00 0.00000000e+00 
6.00000000e+00 4.66666651e+00 0.00000000e+00 
3.00000000e+00 5.00000000e+00 0.00000000e+00 
4.00000000e+00 5.00000000e+00 0.00000000e+00 
5.00000000e+00 5.00000000e+00 0.00000000e+00 
6.00000000e+00 5.00000000e+00 0.00000000e+00 

        </DataArray>
      </Points>
      <Cells>
        <DataArray type="Int32" Name="connectivity" format="ascii">
0 1 5 4
4 5 9 8
8 9 13 12
1 2 6 5
5 6 10 9
9 10 14 13
2 3 7 6
6 7 11 10
10 11 15 14

        </DataArray>
        <DataArray type="Int32" Name="offsets" format="ascii">
4 8 12 16 20 24 28 32 36 
        </DataArray>
        <DataArray type="UInt8" Name="types" format="ascii">
9 9 9 9 9 9 9 9 9 
        </DataArray>
      </Cells>
      <PointData>
        <DataArray type="Float64" Name="u">
          2.05907662e+02 2.01126692e+02 2.04395473e+02 2.00328656e+02 2.23809471e+02 2.16466569e+02 2.14480018e+02 2.05553317e+02 2.19302347e+02 2.09778174e+02 2.04193802e+02 1.91071196e+02 1.93035503e+02 1.82793012e+02 1.75140827e+02 1.60280715e+02 
        </DataArray>
        <DataArray type="Float64" Name="v">
          -6.28820844e+00 -1.38523332e+01 -1.80733856e+01 -2.14279408e+01 -6.26299753e+00 -1.09063332e+01 -1.60341141e+01 -2.07711071e+01 -6.44747253e+00 -1.01925818e+01 -1.37701652e+01 -1.83675036e+01 -5.30068510e+00 -5.43907165e+00 -9.33033484e+00 -1.46191639e+01 
        </DataArray>
        <DataArray type="Float64" Name="p">
          -1.36385599e+03 -1.59797150e+03 -1.83208701e+03 -2.06620252e+03 -1.06020347e+03 -1.26353323e+03 -1.46686299e+03 -1.67019275e+03 -7.56550960e+02 -9.29094968e+02 -1.10163898e+03 -1.27418299e+03 -4.52898447e+02 -5.94656704e+02 -7.36414962e+02 -8.78173219e+02 
        </DataArray>
      </PointData>
    </Piece>
    <Piece NumberOfPoints="16" NumberOfCells="9">
      <Points>
        <DataArray type="Float64" NumberOfComponents="3" format="ascii">
          3.00000000e+00 5.00000000e+00 0.00000000e+00 
4.00000000e+00 5.00000000e+00 0.00000000e+00 
5.00000000e+00 5.00000000e+00 0.00000000e+00 
6.00000000e+00 5.00000000e+00 0.00000000e+00 
3.00000000e+00 5.33333349e+00 0.00000000e+00 
4.00000000e+00 5.33333349e+00 0.00000000e+00 
5.00000000e+00 5.33333349e+00 0.00000000e+00 
6.00000000e+00 5.33333349e+00 0.00000000e+00 
3.00000000e+00 5.66666651e+00 0.00000000e+00 
4.00000000e+00 5.66666651e+00 0.00000000e+00 
5.00000000e+00 5.66666651e+00 0.00000000e+00 
6.00000000e+00 5.66666651e+00 0.00000000e+00 
3.00000000e+00 6.00000000e+00 0.00000000e+00 
4.00000000e+00 6.00000000e+00 0.00000000e+00 
5.00000000e+00 6.00000000e+00 0.00000000e+00 
6.00000000e+00 6.00000000e+00 0.00000000e+00 

        </DataArray>
      </Points>
      <Cells>
        <DataArray type="Int32" Name="connectivity" format="ascii">
0 1 5 4
4 5 9 8
8 9 13 12
1 2 6 5
5 6 10 9
9 10 14 13
2 3 7 6
6 7 11 10
10 11 15 14

        </DataArray>
        <DataArray type="Int32" Name="offsets" format="ascii">
4 8 12 16 20 24 28 32 36 
        </DataArray>
        <DataArray type="UInt8" Name="types" format="ascii">
9 9 9 9 9 9 9 9 9 
        </DataArray>
      </Cells>
      <PointData>
        <DataArray type="Float64" Name="u">
          1.93035503e+02 1.82793012e+02 1.75140827e+02 1.60280715e+02 1.46087329e+02 1.37050166e+02 1.29958379e+02 1.18161147e+02 7.86568527e+01 8.10376582e+01 7.85980481e+01 7.53404325e+01 0.00000000e+00 3.65484974e+01 3.62015049e+01 4.44545339e+01 
        </DataArray>
        <DataArray type="Float64" Name="v">
          -5.30068510e+00 -5.43907165e+00 -9.33033484e+00 -1.46191639e+01 -3.28605016e+00 -1.20527847e+00 -4.00805333e+00 -9.75635451e+00 -1.66292121e+00 -1.24786920e+00 -4.80103289e+00 -7.76909296e+00 0.00000000e+00 -6.45452629e+00 -4.80122526e+00 -3.11812673e+00 
        </DataArray>
        <DataArray type="Float64" Name="p">
          -5.48203470e+02 -6.03789493e+02 -6.59375515e+02 -7.14961537e+02 -7.25573460e+02 -6.45906269e+02 -5.66239079e+02 -4.86571888e+02 -9.02943449e+02 -6.88023046e+02 -4.73102643e+02 -2.58182239e+02 -1.08031344e+03 -7.30139822e+02 -3.79966207e+02 -2.97925908e+01 
        </DataArray>
      </PointData>
    </Piece>
    <Piece NumberOfPoints="16" NumberOfCells="9">
      <Points>
        <DataArray type="Float64" NumberOfComponents="3" format="ascii">
          3.00000000e+00 6.00000000e+00 0.00000000e+00 
4.00000000e+00 6.00000000e+00 0.00000000e+00 
5.00000000e+00 6.00000000e+00 0.00000000e+00 
6.00000000e+00 6.00000000e+00 0.00000000e+00 
3.00000000e+00 6.33333349e+00 0.00000000e+00 
4.00000000e+00 6.33333349e+00 0.00000000e+00 
5.00000000e+00 6.33333349e+00 0.00000000e+00 
6.00000000e+00 6.33333349e+00 0.00000000e+00 
3.00000000e+00 6.66666651e+00 0.00000000e+00 
4.00000000e+00 6.66666651e+00 0.00000000e+00 
5.00000000e+00 6.66666651e+00 0.00000000e+00 
6.00000000e+00 6.66666651e+00 0.00000000e+00 
3.00000000e+00 7.00000000e+00 0.00000000e+00 
4.00000000e+00 7.00000000e+00 0.00000000e+00 
5.00000000e+00 7.00000000e+00 0.00000000e+00 
6.00000000e+00 7.00000000e+00 0.00000000e+00 

        </DataArray>
      </Points>
      <Cells>
        <DataArray type="Int32" Name="connectivity" format="ascii">
0 1 5 4
4 5 9 8
8 9 13 12
1 2 6 5
5 6 10 9
9 10 14 13
2 3 7 6
6 7 11 10
10 11 15 14

        </DataArray>
        <DataArray type="Int32" Name="offsets" format="ascii">
4 8 12 16 20 24 28 32 36 
        </DataArray>
        <DataArray type="UInt8" Name="types" format="ascii">
9 9 9 9 9 9 9 9 9 
        </DataArray>
      </Cells>
      <PointData>
        <DataArray type="Float64" Name="u">
          0.00000000e+00 3.65484974e+01 3.62015049e+01 4.44545339e+01 0.00000000e+00 8.26910644e+00 1.18096261e+01 1.84746782e+01 0.00000000e+00 -2.44487632e+00 -1.01607181e+00 1.20001354e+00 0.00000000e+00 -6.28246814e+00 -7.58221128e+00 -9.95461458e+00 
        </DataArray>
        <DataArray type="Float64" Name="v">
          0.00000000e+00 -6.45452629e+00 -4.80122526e+00 -3.11812673e+00 0.00000000e+00 -1.31124381e+01 -7.77557187e+00 -2.56157359e+00 0.00000000e+00 -1.45169657e+01 -8.21209818e+00 -3.08571625e+00 0.00000000e+00 -1.27429428e+01 -8.57978788e+00 -4.09185403e+00 
        </DataArray>
        <DataArray type="Float64" Name="p">
          -1.05233149e+03 -7.79060400e+02 -5.05789306e+02 -2.32518212e+02 -8.86925564e+02 -6.93843561e+02 -5.00761557e+02 -3.07679553e+02 -7.21519636e+02 -6.08626722e+02 -4.95733808e+02 -3.82840894e+02 -5.56113707e+02 -5.23409883e+02 -4.90706059e+02 -4.58002235e+02 
        </DataArray>
      </PointData>
    </Piece>
    <Piece NumberOfPoints="16" NumberOfCells="9">
      <Points>
        <DataArray type="Float64" NumberOfComponents="3" format="ascii">
          3.00000000e+00 7.00000000e+00 0.00000000e+00 
4.00000000e+00 7.00000000e+00 0.00000000e+00 
5.00000000e+00 7.00000000e+00 0.00000000e+00 
6.00000000e+00 7.00000000e+00 0.00000000e+00 
3.00000000e+00 7.33333349e+00 0.00000000e+00 
4.00000000e+00 7.33333349e+00 0.00000000e+00 
5.00000000e+00 7.33333349e+00 0.00000000e+00 
6.00000000e+00 7.33333349e+00 0.00000000e+00 
3.00000000e+00 7.66666651e+00 0.00000000e+00 
4.00000000e+00 7.66666651e+00 0.00000000e+00 
5.00000000e+00 7.66666651e+00 0.00000000e+00 
6.00000000e+00 7.66666651e+00 0.00000000e+00 
3.00000000e+00 8.00000000e+00 0.00000000e+00 
4.00000000e+00 8.00000000e+00 0.00000000e+00 
5.00000000e+00 8.00000000e+00 0.00000000e+00 
6.00000000e+00 8.00000000e+00 0.00000000e+00 

        </DataArray>
      </Points>
      <Cells>
        <DataArray type="Int32" Name="connectivity" format="ascii">
0 1 5 4
4 5 9 8
8 9 13 12
1 2 6 5
5 6 10 9
9 10 14 13
2 3 7 6
6 7 11 10
10 11 15 14

        </DataArray>
        <DataArray type="Int32" Name="offsets" format="ascii">
4 8 12 16 20 24 28 32 36 
        </DataArray>
        <DataArray type="UInt8" Name="types" format="ascii">
9 9 9 9 9 9 9 9 9 
        </DataArray>
      </Cells>
      <PointData>
        <DataArray type="Float64" Name="u">
          0.00000000e+00 -6.28246814e+00 -7.58221128e+00 -9.95461458e+00 0.00000000e+00 -7.56032791e+00 -1.09219940e+01 -1.55962456e+01 0.00000000e+00 -7.45416015e+00 -1.17340243e+01 -1.75275923e+01 0.00000000e+00 -6.50336332e+00 -1.06577151e+01 -1.64916692e+01 
        </DataArray>
        <DataArray type="Float64" Name="v">
          0.00000000e+00 -1.27429428e+01 -8.57978788e+00 -4.09185403e+00 0.00000000e+00 -9.95092908e+00 -7.22596624e+00 -3.90889771e+00 0.00000000e+00 -7.42954490e+00 -5.63200479e+00 -3.23226680e+00 0.00000000e+00 -4.41569377e+00 -3.57645006e+00 -2.14434890e+00 
        </DataArray>
        <DataArray type="Float64" Name="p">
          -5.70009392e+02 -5.14375369e+02 -4.58741345e+02 -4.03107322e+02 -5.22590695e+02 -4.75170719e+02 -4.27750742e+02 -3.80330766e+02 -4.75171998e+02 -4.35966068e+02 -3.96760139e+02 -3.57554209e+02 -4.27753301e+02 -3.96761418e+02 -3.65769536e+02 -3.34777653e+02 
        </DataArray>
      </PointData>
    </Piece>
    <Piece NumberOfPoints="16" NumberOfCells="9">
      <Points>
        <DataArray type="Float64" NumberOfComponents="3" format="ascii">
          3.00000000e+00 8.00000000e+00 0.00000000e+00 
4.00000000e+00 8.00000000e+00 0.00000000e+00 
5.00000000e+00 8.00000000e+00 0.00000000e+00 
6.00000000e+00 8.00000000e+00 0.00000000e+00 
3.00000000e+00 8.33333302e+00 0.00000000e+00 
4.00000000e+00 8.33333302e+00 0.00000000e+00 
5.00000000e+00 8.33333302e+00 0.00000000e+00 
6.00000000e+00 8.33333302e+00 0.00000000e+00 
3.00000000e+00 8.66666698e+00 0.00000000e+00 
4.00000000e+00 8.66666698e+00 0.00000000e+00 
5.00000000e+00 8.66666698e+00 0.00000000e+00 
6.00000000e+00 8.66666698e+00 0.00000000e+00 
3.00000000e+00 9.00000000e+00 0.00000000e+00 
4.00000000e+00 9.00000000e+00 0.00000000e+00 
5.00000000e+00 9.00000000e+00 0.00000000e+00 
6.00000000e+00 9.00000000e+00 0.00000000e+00 

        </DataArray>
      </Points>
      <Cells>
        <DataArray type="Int32" Name="connectivity" format="ascii">
0 1 5 4
4 5 9 8
8 9 13 12
1 2 6 5
5 6 10 9
9 10 14 13
2 3 7 6
6 7 11 10
10 11 15 14

        </DataArray>
        <DataArray type="Int32" Name="offsets" format="ascii">
4 8 12 16 20 24 28 32 36 
        </DataArray>
        <DataArray type="UInt8" Name="types" format="ascii">
9 9 9 9 9 9 9 9 9 
        </DataArray>
      </Cells>
      <PointData>
        <DataArray type="Float64" Name="u">
          0.00000000e+00 -6.50336332e+00 -1.06577151e+01 -1.64916692e+01 0.00000000e+00 -4.94218846e+00 -8.12671559e+00 -1.30890562e+01 0.00000000e+00 -2.78980808e+00 -4.45919699e+00 -7.53450111e+00 0.00000000e+00 0.00000000e+00 0.00000000e+00 0.00000000e+00 
        </DataArray>
        <DataArray type="Float64" Name="v">
          0.00000000e+00 -4.41569377e+00 -3.57645006e+00 -2.14434890e+00 0.00000000e+00 -2.00433710e+00 -1.72306704e+00 -9.95782049e-01 0.00000000e+00 -6.55091629e-01 -6.07971997e-01 -3.34888378e-01 0.00000000e+00 0.00000000e+00 0.00000000e+00 0.00000000e+00 
        </DataArray>
        <DataArray type="Float64" Name="p">
          -4.35830367e+02 -4.01255212e+02 -3.66680057e+02 -3.32104903e+02 -4.45469129e+02 -4.09971087e+02 -3.74473045e+02 -3.38975004e+02 -4.55107892e+02 -4.18686963e+02 -3.82266033e+02 -3.45845104e+02 -4.64746654e+02 -4.27402838e+02 -3.90059021e+02 -3.52715205e+02 
        </DataArray>
      </PointData>
    </Piece>
    <Piece NumberOfPoints="16" NumberOfCells="9">
      <Points>
        <DataArray type="Float64" NumberOfComponents="3" format="ascii">
          6.00000000e+00 0.00000000e+00 0.00000000e+00 
7.00000000e+00 0.00000000e+00 0.00000000e+00 
8.00000000e+00 0.00000000e+00 0.00000000e+00 
9.00000000e+00 0.00000000e+00 0.00000000e+00 
6.00000000e+00 3.33333343e-01 0.00000000e+00 
7.00000000e+00 3.33333343e-01 0.00000000e+00 
8.00000000e+00 3.33333343e-01 0.00000000e+00 
9.00000000e+00 3.33333343e-01 0.00000000e+00 
6.00000000e+00 6.66666687e-01 0.00000000e+00 
7.00000000e+00 6.66666687e-01 0.00000000e+00 
8.00000000e+00 6.66666687e-01 0.00000000e+00 
9.00000000e+00 6.66666687e-01 0.00000000e+00 
6.00000000e+00 1.00000000e+00 0.00000000e+00 
7.00000000e+00 1.00000000e+00 0.00000000e+00 
8.00000000e+00 1.00000000e+00 0.00000000e+00 
9.00000000e+00 1.00000000e+00 0.00000000e+00 

        </DataArray>
      </Points>
      <Cells>
        <DataArray type="Int32" Name="connectivity" format="ascii">
0 1 5 4
4 5 9 8
8 9 13 12
1 2 6 5
5 6 10 9
9 10 14 13
2 3 7 6
6 7 11 10
10 11 15 14

        </DataArray>
        <DataArray type="Int32" Name="offsets" format="ascii">
4 8 12 16 20 24 28 32 36 
        </DataArray>
        <DataArray type="UInt8" Name="types" format="ascii">
9 9 9 9 9 9 9 9 9 
        </DataArray>
      </Cells>
      <PointData>
        <DataArray type="Float64" Name="u">