<?xml version="1.0"?>
<VTKFile type="UnstructuredGrid" version="0.1" byte_order="LittleEndian">
  <UnstructuredGrid>
    <Piece NumberOfPoints="16" NumberOfCells="9">
      <Points>
        <DataArray type="Float64" NumberOfComponents="3" format="ascii">
          0.00000000e+00 3.00000000e+00 0.00000000e+00 
1.00000000e+00 3.00000000e+00 0.00000000e+00 
2.00000000e+00 3.00000000e+00 0.00000000e+00 
3.00000000e+00 3.00000000e+00 0.00000000e+00 
0.00000000e+00 3.33333325e+00 0.00000000e+00 
1.00000000e+00 3.33333325e+00 0.00000000e+00 
2.00000000e+00 3.33333325e+00 0.00000000e+00 
3.00000000e+00 3.33333325e+00 0.00000000e+00 
0.00000000e+00 3.66666675e+00 0.00000000e+00 
1.00000000e+00 3.66666675e+00 0.00000000e+00 
2.00000000e+00 3.66666675e+00 0.00000000e+00 
3.00000000e+00 3.66666675e+00 0.00000000e+00 
0.00000000e+00 4.00000000e+00 0.00000000e+00 
1.00000000e+00 4.00000000e+00 0.00000000e+00 
2.00000000e+00 4.00000000e+00 0.00000000e+00 
3.00000000e+00 4.00000000e+00 0.00000000e+00 

        </DataArray>
      </Points>
      <Cells>
        <DataArray type="Int32" Name="connectivity" format="ascii">
0 1 5 4
4 5 9 8
8 9 13 12
1 2 6 5
5 6 10 9
9 10 14 13
2 3 7 6
6 7 11 10
10 11 15 14

        </DataArray>
        <DataArray type="Int32" Name="offsets" format="ascii">
4 8 12 16 20 24 28 32 36 
        </DataArray>
        <DataArray type="UInt8" Name="types" format="ascii">
9 9 9 9 9 9 9 9 9 
        </DataArray>
      </Cells>
      <PointData>
        <DataArray type="Float64" Name="u">
          0.00000000e+00 0.00000000e+00 0.00000000e+00 0.00000000e+00 8.88888889e+01 9.18789332e+01 9.07843576e+01 9.91100649e+01 1.55555556e+02 1.58234599e+02 1.58030253e+02 1.63530741e+02 2.00000000e+02 2.01361389e+02 2.01931278e+02 2.04682559e+02 
        </DataArray>
        <DataArray type="Float64" Name="v">
          0.00000000e+00 0.00000000e+00 0.00000000e+00 0.00000000e+00 0.00000000e+00 -7.60934636e-01 -1.08234101e+00 -3.66484915e+00 0.00000000e+00 -7.21600921e-01 -1.72480061e+00 -3.49395886e+00 0.00000000e+00 -1.69762510e+00 -3.08204827e+00 -5.41819429e+00 
        </DataArray>
        <DataArray type="Float64" Name="p">
          3.50214057e+03 2.01558253e+03 5.29024496e+02 -9.57533543e+02 3.50640910e+03 2.04267146e+03 5.78933827e+02 -8.84803809e+02 3.51067763e+03 2.06976039e+03 6.28843159e+02 -8.12074076e+02 3.51494616e+03 2.09684932e+03 6.78752490e+02 -7.39344343e+02 
        </DataArray>
      </PointData>
    </Piece>
    <Piece NumberOfPoints="16" NumberOfCells="9">
      <Points>
        <DataArray type="Float64" NumberOfComponents="3" format="ascii">
          0.00000000e+00 4.00000000e+00 0.00000000e+00 
1.00000000e+00 4.00000000e+00 0.00000000e+00 
2.00000000e+00 4.00000000e+00 0.00000000e+00 
3.00000000e+00 4.00000000e+00 0.00000000e+00 
0.00000000e+00 4.33333349e+00 0.00000000e+00 
1.00000000e+00 4.33333349e+00 0.00000000e+00 
2.00000000e+00 4.33333349e+00 0.00000000e+00 
3.00000000e+00 4.33333349e+00 0.00000000e+00 
0.00000000e+00 4.66666651e+00 0.00000000e+00 
1.00000000e+00 4.66666651e+00 0.00000000e+00 
2.00000000e+00 4.66666651e+00 0.00000000e+00 
3.00000000e+00 4.66666651e+00 0.00000000e+00 
0.00000000e+00 5.00000000e+00 0.00000000e+00 
1.00000000e+00 5.00000000e+00 0.00000000e+00 
2.00000000e+00 5.00000000e+00 0.00000000e+00 
3.00000000e+00 5.00000000e+00 0.00000000e+00 

        </DataArray>
      </Points>
      <Cells>
        <DataArray type="Int32" Name="connectivity" format="ascii">
0 1 5 4
4 5 9 8
8 9 13 12
1 2 6 5
5 6 10 9
9 10 14 13
2 3 7 6
6 7 11 10
10 11 15 14

        </DataArray>
        <DataArray type="Int32" Name="offsets" format="ascii">
4 8 12 16 20 24 28 32 36 
        </DataArray>
        <DataArray type="UInt8" Name="types" format="ascii">
9 9 9 9 9 9 9 9 9 
        </DataArray>
      </Cells>
      <PointData>
        <DataArray type="Float64" Name="u">
          2.00000000e+02 2.01361389e+02 2.01931278e+02 2.04682559e+02 2.22222222e+02 2.22313985e+02 2.22819504e+02 2.23290086e+02 2.22222222e+02 2.21008231e+02 2.21440870e+02 2.19505980e+02 2.00000000e+02 1.97727800e+02 1.98320993e+02 1.93960094e+02 
        </DataArray>
        <DataArray type="Float64" Name="v">
          0.00000000e+00 -1.69762510e+00 -3.08204827e+00 -5.41819429e+00 0.00000000e+00 -1.90377312e+00 -3.68738501e+00 -5.25296308e+00 0.00000000e+00 -1.92438935e+00 -3.55587076e+00 -5.46839820e+00 0.00000000e+00 -1.42666529e+00 -3.01828403e+00 -4.32153946e+00 
        </DataArray>
        <DataArray type="Float64" Name="p">
          3.54016806e+03 2.12499884e+03 7.09829630e+02 -7.05339582e+02 3.67821608e+03 2.26200834e+03 8.45800590e+02 -5.70407158e+02 3.81626411e+03 2.39901783e+03 9.81771549e+02 -4.35474733e+02 3.95431214e+03 2.53602733e+03 1.11774251e+03 -3.00542309e+02 
        </DataArray>
      </PointData>
    </Piece>
    <Piece NumberOfPoints="16" NumberOfCells="9">
      <Points>
        <DataArray type="Float64" NumberOfComponents="3" format="ascii">
          0.00000000e+00 5.00000000e+00 0.00000000e+00 
1.00000000e+00 5.00000000e+00 0.00000000e+00 
2.00000000e+00 5.00000000e+00 0.00000000e+00 
3.00000000e+00 5.00000000e+00 0.00000000e+00 
0.00000000e+00 5.33333349e+00 0.00000000e+00 
1.00000000e+00 5.33333349e+00 0.00000000e+00 
2.00000000e+00 5.33333349e+00 0.00000000e+00 
3.00000000e+00 5.33333349e+00 0.00000000e+00 
0.00000000e+00 5.66666651e+00 0.00000000e+00 
1.00000000e+00 5.66666651e+00 0.00000000e+00 
2.00000000e+00 5.66666651e+00 0.00000000e+00 
3.00000000e+00 5.66666651e+00 0.00000000e+00 
0.00000000e+00 6.00000000e+00 0.00000000e+00 
1.00000000e+00 6.00000000e+00 0.00000000e+00 
2.00000000e+00 6.00000000e+00 0.00000000e+00 
3.00000000e+00 6.00000000e+00 0.00000000e+00 

        </DataArray>
      </Points>
      <Cells>
        <DataArray type="Int32" Name="connectivity" format="ascii">
0 1 5 4
4 5 9 8
8 9 13 12
1 2 6 5
5 6 10 9
9 10 14 13
2 3 7 6
6 7 11 10
10 11 15 14

        </DataArray>
        <DataArray type="Int32" Name="offsets" format="ascii">
4 8 12 16 20 24 28 32 36 
        </DataArray>
        <DataArray type="UInt8" Name="types" format="ascii">
9 9 9 9 9 9 9 9 9 
        </DataArray>
      </Cells>
      <PointData>
        <DataArray type="Float64" Name="u">
          2.00000000e+02 1.97727800e+02 1.98320993e+02 1.93960094e+02 1.55555556e+02 1.52894888e+02 1.53620659e+02 1.47732240e+02 8.88888889e+01 8.67418992e+01 8.73375138e+01 8.10691188e+01 0.00000000e+00 0.00000000e+00 0.00000000e+00 0.00000000e+00 
        </DataArray>
        <DataArray type="Float64" Name="v">
          0.00000000e+00 -1.42666529e+00 -3.01828403e+00 -4.32153946e+00 0.00000000e+00 -5.65560402e-01 -1.61570974e+00 -2.59436901e+00 0.00000000e+00 -4.98012969e-01 -1.35521069e+00 -9.87138927e-01 0.00000000e+00 0.00000000e+00 0.00000000e+00 0.00000000e+00 
        </DataArray>
        <DataArray type="Float64" Name="p">
          3.95656807e+03 2.55355926e+03 1.15055045e+03 -2.52458357e+02 3.98288573e+03 2.58407629e+03 1.18526684e+03 -2.13542600e+02 4.00920338e+03 2.61459331e+03 1.21998323e+03 -1.74626844e+02 4.03552104e+03 2.64511033e+03 1.25469962e+03 -1.35711087e+02 
        </DataArray>
      </PointData>
    </Piece>
    <Piece NumberOfPoints="16" NumberOfCells="9">
      <Points>
        <DataArray type="Float64" NumberOfComponents="3" format="ascii">
          3.00000000e+00 0.00000000e+00 0.00000000e+00 
4.00000000e+00 0.00000000e+00 0.00000000e+00 
5.00000000e+00 0.00000000e+00 0.00000000e+00 
6.00000000e+00 0.00000000e+00 0.00000000e+00 
3.00000000e+00 3.33333343e-01 0.00000000e+00 
4.00000000e+00 3.33333343e-01 0.00000000e+00 
5.00000000e+00 3.33333343e-01 0.00000000e+00 
6.00000000e+00 3.33333343e-01 0.00000000e+00 
3.00000000e+00 6.66666687e-01 0.00000000e+00 
4.00000000e+00 6.66666687e-01 0.00000000e+00 
5.00000000e+00 6.66666687e-01 0.00000000e+00 
6.00000000e+00 6.66666687e-01 0.00000000e+00 
3.00000000e+00 1.00000000e+00 0.00000000e+00 
4.00000000e+00 1.00000000e+00 0.00000000e+00 
5.00000000e+00 1.00000000e+00 0.00000000e+00 
6.00000000e+00 1.00000000e+00 0.00000000e+00 

        </DataArray>
      </Points>
      <Cells>
        <DataArray type="Int32" Name="connectivity" format="ascii">
0 1 5 4
4 5 9 8
8 9 13 12
1 2 6 5
5 6 10 9
9 10 14 13
2 3 7 6
6 7 11 10
10 11 15 14

        </DataArray>
        <DataArray type="Int32" Name="offsets" format="ascii">
4 8 12 16 20 24 28 32 36 
        </DataArray>
        <DataArray type="UInt8" Name="types" format="ascii">
9 9 9 9 9 9 9 9 9 
        </DataArray>
      </Cells>
      <PointData>
        <DataArray type="Float64" Name="u">
          0.00000000e+00 0.00000000e+00 0.00000000e+00 0.00000000e+00 0.00000000e+00 -4.55077461e+00 -6.87362952e+00 -1.26203969e+01 0.00000000e+00 -7.67609310e+00 -1.19182287e+01 -2.09488928e+01 0.00000000e+00 -9.44350505e+00 -1.44080319e+01 -2.36858220e+01 
        </DataArray>
        <DataArray type="Float64" Name="v">
          0.00000000e+00 0.00000000e+00 0.00000000e+00 0.00000000e+00 0.00000000e+00 1.04986074e+00 1.10472611e+00 7.65437667e-01 0.00000000e+00 3.05296403e+00 2.97511783e+00 1.76849975e+00 0.00000000e+00 6.51709331e+00 6.16869843e+00 3.40718854e+00 
        </DataArray>
        <DataArray type="Float64" Name="p">
          -1.25272942e+03 -1.15610856e+03 -1.05948770e+03 -9.62866838e+02 -1.23686046e+03 -1.14218320e+03 -1.04750594e+03 -9.52828673e+02 -1.22099151e+03 -1.12825784e+03 -1.03552417e+03 -9.42790507e+02 -1.20512255e+03 -1.11433248e+03 -1.02354241e+03 -9.32752342e+02 
        </DataArray>
      </PointData>
    </Piece>
    <Piece NumberOfPoints="16" NumberOfCells="9">
      <Points>
        <DataArray type="Float64" NumberOfComponents="3" format="ascii">
          3.00000000e+00 1.00000000e+00 0.00000000e+00 
4.00000000e+00 1.00000000e+00 0.00000000e+00 
5.00000000e+00 1.00000000e+00 0.00000000e+00 
6.00000000e+00 1.00000000e+00 0.00000000e+00 
3.00000000e+00 1.33333337e+00 0.00000000e+00 
4.00000000e+00 1.33333337e+00 0.00000000e+00 
5.00000000e+00 1.33333337e+00 0.00000000e+00 
6.00000000e+00 1.33333337e+00 0.00000000e+00 
3.00000000e+00 1.66666663e+00 0.00000000e+00 
4.00000000e+00 1.66666663e+00 0.00000000e+00 
5.00000000e+00 1.66666663e+00 0.00000000e+00 
6.00000000e+00 1.66666663e+00 0.00000000e+00 
3.00000000e+00 2.00000000e+00 0.00000000e+00 
4.00000000e+00 2.00000000e+00 0.00000000e+00 
5.00000000e+00 2.00000000e+00 0.00000000e+00 
6.00000000e+00 2.00000000e+00 0.00000000e+00 

        </DataArray>
      </Points>
      <Cells>
        <DataArray type="Int32" Name="connectivity" format="ascii">
0 1 5 4
4 5 9 8
8 9 13 12
1 2 6 5
5 6 10 9
9 10 14 13
2 3 7 6
6 7 11 10
10 11 15 14

        </DataArray>
        <DataArray type="Int32" Name="offsets" format="ascii">
4 8 12 16 20 24 28 32 36 
        </DataArray>
        <DataArray type="UInt8" Name="types" format="ascii">
9 9 9 9 9 9 9 9 9 
        </DataArray>
      </Cells>
      <PointData>
        <DataArray type="Float64" Name="u">
          0.00000000e+00 -9.44350505e+00 -1.44080319e+01 -2.36858220e+01 0.00000000e+00 -9.85147548e+00 -1.37796906e+01 -2.06195644e+01 0.00000000e+00 -8.74151125e+00 -9.74096272e+00 -1.14636366e+01 0.00000000e+00 -5.51384208e+00 -1.76922788e+00 4.06916011e+00 
        </DataArray>
        <DataArray type="Float64" Name="v">
          0.00000000e+00 6.51709331e+00 6.16869843e+00 3.40718854e+00 0.00000000e+00 1.04029186e+01 9.04763057e+00 4.11926483e+00 0.00000000e+00 1.32903722e+01 1.06777705e+01 3.54668597e+00 0.00000000e+00 1.57495687e+01 1.06568957e+01 8.67259065e-01 
        </DataArray>
        <DataArray type="Float64" Name="p">
          -1.19394514e+03 -1.11449157e+03 -1.03503800e+03 -9.55584431e+02 -1.25288076e+03 -1.17993989e+03 -1.10699902e+03 -1.03405815e+03 -1.31181637e+03 -1.24538820e+03 -1.17896003e+03 -1.11253186e+03 -1.37075199e+03 -1.31083652e+03 -1.25092105e+03 -1.19100557e+03 
        </DataArray>
      </PointData>
    </Piece>
    <Piece NumberOfPoints="16" NumberOfCells="9">
      <Points>
        <DataArray type="Float64" NumberOfComponents="3" format="ascii">
          3.00000000e+00 2.00000000e+00 0.00000000e+00 
4.00000000e+00 2.00000000e+00 0.00000000e+00 
5.00000000e+00 2.00000000e+00 0.00000000e+00 
6.00000000e+00 2.00000000e+00 0.00000000e+00 
3.00000000e+00 2.33333325e+00 0.00000000e+00 
4.00000000e+00 2.33333325e+00 0.00000000e+00 
5.00000000e+00 2.33333325e+00 0.00000000e+00 
6.00000000e+00 2.33333325e+00 0.00000000e+00 
3.00000000e+00 2.66666675e+00 0.00000000e+00 
4.00000000e+00 2.66666675e+00 0.00000000e+00 
5.00000000e+00 2.66666675e+00 0.00000000e+00 
6.00000000e+00 2.66666675e+00 0.00000000e+00 
3.00000000e+00 3.00000000e+00 0.00000000e+00 
4.00000000e+00 3.00000000e+00 0.00000000e+00 
5.00000000e+00 3.00000000e+00 0.00000000e+00 
6.00000000e+00 3.00000000e+00 0.00000000e+00 

        </DataArray>
      </Points>
      <Cells>
        <DataArray type="Int32" Name="connectivity" format="ascii">
0 1 5 4
4 5 9 8
8 9 13 12
1 2 6 5
5 6 10 9
9 10 14 13
2 3 7 6
6 7 11 10
10 11 15 14

        </DataArray>
        <DataArray type="Int32" Name="offsets" format="ascii">
4 8 12 16 20 24 28 32 36 
        </DataArray>
        <DataArray type="UInt8" Name="types" format="ascii">
9 9 9 9 9 9 9 9 9 
        </DataArray>
      </Cells>
      <PointData>
        <DataArray type="Float64" Name="u">
          0.00000000e+00 -5.51384208e+00 -1.76922788e+00 4.06916011e+00 0.00000000e+00 1.32394345e+00 1.07979443e+01 2.73597170e+01 0.00000000e+00 1.81628826e+01 3.30801116e+01 5.73418748e+01 0.00000000e+00 5.77105881e+01 7.11112055e+01 9.63166263e+01 
        </DataArray>
        <DataArray type="Float64" Name="v">
          0.00000000e+00 1.57495687e+01 1.06568957e+01 8.67259065e-01 0.00000000e+00 1.62646016e+01 6.82279942e+00 -4.82208916e+00 0.00000000e+00 1.14527436e+01 2.06624247e+00 -8.93572155e+00 0.00000000e+00 -1.46276651e+00 -7.06712847e+00 -1.24871836e+01 
        </DataArray>
        <DataArray type="Float64" Name="p">
          -1.32942961e+03 -1.32080906e+03 -1.31218852e+03 -1.30356797e+03 -1.59230656e+03 -1.43129937e+03 -1.27029217e+03 -1.10928498e+03 -1.85518350e+03 -1.54178967e+03 -1.22839583e+03 -9.15002000e+02 -2.11806044e+03 -1.65227997e+03 -1.18649949e+03 -7.20719017e+02 
        </DataArray>
      </PointData>
    </Piece>
    <Piece NumberOfPoints="16" NumberOfCells="9">
      <Points>
        <DataArray type="Float64" NumberOfComponents="3" format="ascii">
          3.00000000e+00 3.00000000e+00 0.00000000e+00 
4.00000000e+00 3.00000000e+00 0.00000000e+00 
5.00000000e+00 3.00000000e+00 0.00000000e+00 
6.00000000e+00 3.00000000e+00 0.00000000e+00 
3.00000000e+00 3.33333325e+00 0.00000000e+00 
4.00000000e+00 3.33333325e+00 0.00000000e+00 
5.00000000e+00 3.33333325e+00 0.00000000e+00 
6.00000000e+00 3.33333325e+00 0.00000000e+00 
3.00000000e+00 3.66666675e+00 0.00000000e+00 
4.00000000e+00 3.66666675e+00 0.00000000e+00 
5.00000000e+00 3.66666675e+00 0.00000000e+00 
6.00000000e+00 3.66666675e+00 0.00000000e+00 
3.00000000e+00 4.00000000e+00 0.00000000e+00 
4.00000000e+00 4.00000000e+00 0.00000000e+00 
5.00000000e+00 4.00000000e+00 0.00000000e+00 
6.00000000e+00 4.00000000e+00 0.00000000e+00 

        </DataArray>
      </Points>
      <Cells>
        <DataArray type="Int32" Name="connectivity" format="ascii">
0 1 5 4
4 5 9 8
8 9 13 12
1 2 6 5
5 6 10 9
9 10 14 13
2 3 7 6
6 7 11 10
10 11 15 14

        </DataArray>
        <DataArray type="Int32" Name="offsets" format="ascii">
4 8 12 16 20 24 28 32 36 
        </DataArray>
        <DataArray type="UInt8" Name="types" format="ascii">
9 9 9 9 9 9 9 9 9 
        </DataArray>
      </Cells>
      <PointData>
        <DataArray type="Float64" Name="u">
          0.00000000e+00 5.77105881e+01 7.11112055e+01 9.63166263e+01 9.91100649e+01 1.09261873e+02 1.22353504e+02 1.34727532e+02 1.63530741e+02 1.62534249e+02 1.68877533e+02 1.71773947e+02 2.04682559e+02 1.98733869e+02 2.01005476e+02 1.95619809e+02 
        </DataArray>
        <DataArray type="Float64" Name="v">
          0.00000000e+00 -1.46276651e+00 -7.06712847e+00 -1.24871836e+01 -3.66484915e+00 -1.24641663e+01 -1.42991889e+01 -1.41270989e+01 -3.49395886e+00 -1.30015274e+01 -1.62462377e+01 -1.60250476e+01 -5.41819429e+00 -1.27814885e+01 -1.62442216e+01 -1.85268431e+01 
        </DataArray>
        <DataArray type="Float64" Name="p">
          -2.25759441e+03 -1.70229448e+03 -1.14699455e+03 -5.91694625e+02 -1.66762605e+03 -1.35426928e+03 -1.04091252e+03 -7.27555760e+02 -1.07765768e+03 -1.00624409e+03 -9.34830490e+02 -8.63416894e+02 -4.87689318e+02 -6.58218888e+02 -8.28748458e+02 -9.99278028e+02 
        </DataArray>
      </PointData>
    </Piece>
    <Piece NumberOfPoints="16" NumberOfCells="9">
      <Points>
        <DataArray type="Float64" NumberOfComponents="3" format="ascii">
          3.00000000e+00 4.00000000e+00 0.00000000e+00 
4.00000000e+00 4.00000000e+00 0.00000000e+00 
5.00000000e+00 4.00000000e+00 0.00000000e+00 
6.00000000e+00 4.00000000e+00 0.00000000e+00 
3.00000000e+00 4.33333349e+00 0.00000000e+00 
4.00000000e+00 4.33333349e+00 0.00000000e+00 
5.00000000e+00 4.33333349e+00 0.00000000e+00 
6.00000000e+00 4.33333349e+00 0.00000000e+00 
3.00000000e+00 4.66666651e+00 0.00000000e+00 
4.00000000e+00 4.66666651e+00 0.00000000e+00 
5.00000000e+00 4.66666651e+00 0.00000000e+00 
6.00000000e+00 4.66666651e+00 0.00000000e+00 
3.00000000e+00 5.00000000e+00 0.00000000e+00 
4.00000000e+00 5.00000000e+00 0.00000000e+00 
5.00000000e+00 5.00000000e+00 0.00000000e+00 
6.00000000e+00 5.00000000e+00 0.00000000e+00 

        </DataArray>
      </Points>
      <Cells>
        <DataArray type="Int32" Name="connectivity" format="ascii">
0 1 5 4
4 5 9 8
8 9 13 12
1 2 6 5
5 6 10 9
9 10 14 13
2 3 7 6
6 7 11 10
10 11 15 14

        </DataArray>
        <DataArray type="Int32" Name="offsets" format="ascii">
4 8 12 16 20 24 28 32 36 
        </DataArray>
        <DataArray type="UInt8" Name="types" format="ascii">
9 9 9 9 9 9 9 9 9 
        </DataArray>
      </Cells>
      <PointData>
        <DataArray type="Float64" Name="u">
          2.04682559e+02 1.98733869e+02 2.01005476e+02 1.95619809e+02 2.23290086e+02 2.14805716e+02 2.12443524e+02 2.02811723e+02 2.19505980e+02 2.09295796e+02 2.03883968e+02 1.90920122e+02 1.93960094e+02 1.83517592e+02 1.76680269e+02 1.62697051e+02 
        </DataArray>
        <DataArray type="Float64" Name="v">
          -5.41819429e+00 -1.27814885e+01 -1.62442216e+01 -1.85268431e+01 -5.25296308e+00 -9.41915618e+00 -1.39514350e+01 -1.79061310e+01 -5.46839820e+00 -8.39096638e+00 -1.13074792e+01 -1.54252274e+01 -4.32153946e+00 -3.55748424e+00 -7.08632627e+00 -1.22630440e+01 
        </DataArray>
        <DataArray type="Float64" Name="p">
          -2.91139373e+02 -5.27605411e+02 -7.64071450e+02 -1.00053749e+03 -3.27999429e+01 -2.40304567e+02 -4.47809190e+02 -6.55313814e+02 2.25539487e+02 4.69962781e+01 -1.31546931e+02 -3.10090140e+02 4.83878917e+02 3.34297123e+02 1.84715329e+02 3.51335346e+01 
        </DataArray>
      </PointData>
    </Piece>
    <Piece NumberOfPoints="16" NumberOfCells="9">
      <Points>
        <DataArray type="Float64" NumberOfComponents="3" format="ascii">
          3.00000000e+00 5.00000000e+00 0.00000000e+00 
4.00000000e+00 5.00000000e+00 0.00000000e+00 
5.00000000e+00 5.00000000e+00 0.00000000e+00 
6.00000000e+00 5.00000000e+00 0.00000000e+00 
3.00000000e+00 5.33333349e+00 0.00000000e+00 
4.00000000e+00 5.33333349e+00 0.00000000e+00 
5.00000000e+00 5.33333349e+00 0.00000000e+00 
6.00000000e+00 5.33333349e+00 0.00000000e+00 
3.00000000e+00 5.66666651e+00 0.00000000e+00 
4.00000000e+00 5.66666651e+00 0.00000000e+00 
5.00000000e+00 5.66666651e+00 0.00000000e+00 
6.00000000e+00 5.66666651e+00 0.00000000e+00 
3.00000000e+00 6.00000000e+00 0.00000000e+00 
4.00000000e+00 6.00000000e+00 0.00000000e+00 
5.00000000e+00 6.00000000e+00 0.00000000e+00 
6.00000000e+00 6.00000000e+00 0.00000000e+00 

        </DataArray>
      </Points>
      <Cells>
        <DataArray type="Int32" Name="connectivity" format="ascii">
0 1 5 4
4 5 9 8
8 9 13 12
1 2 6 5
5 6 10 9
9 10 14 13
2 3 7 6
6 7 11 10
10 11 15 14

        </DataArray>
        <DataArray type="Int32" Name="offsets" format="ascii">
4 8 12 16 20 24 28 32 36 
        </DataArray>
        <DataArray type="UInt8" Name="types" format="ascii">
9 9 9 9 9 9 9 9 9 
        </DataArray>
      </Cells>
      <PointData>
        <DataArray type="Float64" Name="u">
          1.93960094e+02 1.83517592e+02 1.76680269e+02 1.62697051e+02 1.47732240e+02 1.39285296e+02 1.33486345e+02 1.23285664e+02 8.10691188e+01 8.46344269e+01 8.37381371e+01 8.20737383e+01 0.00000000e+00 4.00931573e+01 4.08819751e+01 5.06890744e+01 
        </DataArray>
        <DataArray type="Float64" Name="v">
          -4.32153946e+00 -3.55748424e+00 -7.08632627e+00 -1.22630440e+01 -2.59436901e+00 4.04186462e-01 -2.32196202e+00 -8.27029494e+00 -9.87138927e-01 2.34107943e-01 -3.21697373e+00 -6.44041351e+00 0.00000000e+00 -5.76417431e+00 -3.99530281e+00 -2.27097060e+00 
        </DataArray>
        <DataArray type="Float64" Name="p">
          3.61716628e+02 3.08627678e+02 2.55538728e+02 2.02449778e+02 1.17384310e+02 2.30062657e+02 3.42741003e+02 4.55419350e+02 -1.26948009e+02 1.51497635e+02 4.29943278e+02 7.08388922e+02 -3.71280327e+02 7.29326131e+01 5.17145553e+02 9.61358494e+02 
        </DataArray>
      </PointData>
    </Piece>
    <Piece NumberOfPoints="16" NumberOfCells="9">
      <Points>
        <DataArray type="Float64" NumberOfComponents="3" format="ascii">
          3.00000000e+00 6.00000000e+00 0.00000000e+00 
4.00000000e+00 6.00000000e+00 0.00000000e+00 
5.00000000e+00 6.00000000e+00 0.00000000e+00 
6.00000000e+00 6.00000000e+00 0.00000000e+00 
3.00000000e+00 6.33333349e+00 0.00000000e+00 
4.00000000e+00 6.33333349e+00 0.00000000e+00 
5.00000000e+00 6.33333349e+00 0.00000000e+00 
6.00000000e+00 6.33333349e+00 0.00000000e+00 
3.00000000e+00 6.66666651e+00 0.00000000e+00 
4.00000000e+00 6.66666651e+00 0.00000000e+00 
5.00000000e+00 6.66666651e+00 0.00000000e+00 
6.00000000e+00 6.66666651e+00 0.00000000e+00 
3.00000000e+00 7.00000000e+00 0.00000000e+00 
4.00000000e+00 7.00000000e+00 0.00000000e+00 
5.00000000e+00 7.00000000e+00 0.00000000e+00 
6.00000000e+00 7.00000000e+00 0.00000000e+00 

        </DataArray>
      </Points>
      <Cells>
        <DataArray type="Int32" Name="connectivity" format="ascii">
0 1 5 4
4 5 9 8
8 9 13 12
1 2 6 5
5 6 10 9
9 10 14 13
2 3 7 6
6 7 11 10
10 11 15 14

        </DataArray>
        <DataArray type="Int32" Name="offsets" format="ascii">
4 8 12 16 20 24 28 32 36 
        </DataArray>
        <DataArray type="UInt8" Name="types" format="ascii">
9 9 9 9 9 9 9 9 9 
        </DataArray>
      </Cells>
      <PointData>
        <DataArray type="Float64" Name="u">
          0.00000000e+00 4.00931573e+01 4.08819751e+01 5.06890744e+01 0.00000000e+00 1.01635775e+01 1.49278529e+01 2.30190746e+01 0.00000000e+00 -1.88274130e+00 5.87785125e-01 3.93148071e+00 0.00000000e+00 -6.45416281e+00 -7.04749414e+00 -8.90562113e+00 
        </DataArray>
        <DataArray type="Float64" Name="v">
          0.00000000e+00 -5.76417431e+00 -3.99530281e+00 -2.27097060e+00 0.00000000e+00 -1.34308927e+01 -7.52934568e+00 -1.79829567e+00 0.00000000e+00 -1.53964072e+01 -8.42762413e+00 -2.51960331e+00 0.00000000e+00 -1.37632583e+01 -9.09050867e+00 -3.86647402e+00 
        </DataArray>
        <DataArray type="Float64" Name="p">
          -3.38762952e+02 2.27309131e+01 3.84224778e+02 7.45718643e+02 -1.30529478e+02 1.28042270e+02 3.86614019e+02 6.45185767e+02 7.77039963e+01 2.33353628e+02 3.89003259e+02 5.44652890e+02 2.85937470e+02 3.38664985e+02 3.91392499e+02 4.44120014e+02 
        </DataArray>
      </PointData>
    </Piece>
    <Piece NumberOfPoints="16" NumberOfCells="9">
      <Points>
        <DataArray type="Float64" NumberOfComponents="3" format="ascii">
          3.00000000e+00 7.00000000e+00 0.00000000e+00 
4.00000000e+00 7.00000000e+00 0.00000000e+00 
5.00000000e+00 7.00000000e+00 0.00000000e+00 
6.00000000e+00 7.00000000e+00 0.00000000e+00 
3.00000000e+00 7.33333349e+00 0.00000000e+00 
4.00000000e+00 7.33333349e+00 0.00000000e+00 
5.00000000e+00 7.33333349e+00 0.00000000e+00 
6.00000000e+00 7.33333349e+00 0.00000000e+00 
3.00000000e+00 7.66666651e+00 0.00000000e+00 
4.00000000e+00 7.66666651e+00 0.00000000e+00 
5.00000000e+00 7.66666651e+00 0.00000000e+00 
6.00000000e+00 7.66666651e+00 0.00000000e+00 
3.00000000e+00 8.00000000e+00 0.00000000e+00 
4.00000000e+00 8.00000000e+00 0.00000000e+00 
5.00000000e+00 8.00000000e+00 0.00000000e+00 
6.00000000e+00 8.00000000e+00 0.00000000e+00 

        </DataArray>
      </Points>
      <Cells>
        <DataArray type="Int32" Name="connectivity" format="ascii">
0 1 5 4
4 5 9 8
8 9 13 12
1 2 6 5
5 6 10 9
9 10 14 13
2 3 7 6
6 7 11 10
10 11 15 14

        </DataArray>
        <DataArray type="Int32" Name="offsets" format="ascii">
4 8 12 16 20 24 28 32 36 
        </DataArray>
        <DataArray type="UInt8" Name="types" format="ascii">
9 9 9 9 9 9 9 9 9 
        </DataArray>
      </Cells>
      <PointData>
        <DataArray type="Float64" Name="u">
          0.00000000e+00 -6.45416281e+00 -7.04749414e+00 -8.90562113e+00 0.00000000e+00 -8.13856320e+00 -1.11492942e+01 -1.58283205e+01 0.00000000e+00 -8.22255206e+00 -1.24371268e+01 -1.86100984e+01 0.00000000e+00 -7.30459239e+00 -1.15638194e+01 -1.79777392e+01 
        </DataArray>
        <DataArray type="Float64" Name="v">
          0.00000000e+00 -1.37632583e+01 -9.09050867e+00 -3.86647402e+00 0.00000000e+00 -1.09065095e+01 -7.82787766e+00 -3.92285599e+00 0.00000000e+00 -8.21777759e+00 -6.17231368e+00 -3.34198044e+00 0.00000000e+00 -4.94218616e+00 -3.97662079e+00 -2.27181518e+00 
        </DataArray>
        <DataArray type="Float64" Name="p">
          2.67642471e+02 3.48884808e+02 4.30127144e+02 5.11369481e+02 3.28697941e+02 3.98833795e+02 4.68969648e+02 5.39105501e+02 3.89753412e+02 4.48782782e+02 5.07812152e+02 5.66841522e+02 4.50808882e+02 4.98731769e+02 5.46654656e+02 5.94577542e+02 
        </DataArray>
      </PointData>
    </Piece>
    <Piece NumberOfPoints="16" NumberOfCells="9">
      <Points>
        <DataArray type="Float64" NumberOfComponents="3" format="ascii">
          3.00000000e+00 8.00000000e+00 0.00000000e+00 
4.00000000e+00 8.00000000e+00 0.00000000e+00 
5.00000000e+00 8.00000000e+00 0.00000000e+00 
6.00000000e+00 8.00000000e+00 0.00000000e+00 
3.00000000e+00 8.33333302e+00 0.00000000e+00 
4.00000000e+00 8.33333302e+00 0.00000000e+00 
5.00000000e+00 8.33333302e+00 0.00000000e+00 
6.00000000e+00 8.33333302e+00 0.00000000e+00 
3.00000000e+00 8.66666698e+00 0.00000000e+00 
4.00000000e+00 8.66666698e+00 0.00000000e+00 
5.00000000e+00 8.66666698e+00 0.00000000e+00 
6.00000000e+00 8.66666698e+00 0.00000000e+00 
3.00000000e+00 9.00000000e+00 0.00000000e+00 
4.00000000e+00 9.00000000e+00 0.00000000e+00 
5.00000000e+00 9.00000000e+00 0.00000000e+00 
6.00000000e+00 9.00000000e+00 0.00000000e+00 

        </DataArray>
      </Points>
      <Cells>
        <DataArray type="Int32" Name="connectivity" format="ascii">
0 1 5 4
4 5 9 8
8 9 13 12
1 2 6 5
5 6 10 9
9 10 14 13
2 3 7 6
6 7 11 10
10 11 15 14

        </DataArray>
        <DataArray type="Int32" Name="offsets" format="ascii">
4 8 12 16 20 24 28 32 36 
        </DataArray>
        <DataArray type="UInt8" Name="types" format="ascii">
9 9 9 9 9 9 9 9 9 
        </DataArray>
      </Cells>
      <PointData>
        <DataArray type="Float64" Name="u">
          0.00000000e+00 -7.30459239e+00 -1.15638194e+01 -1.79777392e+01 0.00000000e+00 -5.63999812e+00 -8.97220831e+00 -1.45381390e+01 0.00000000e+00 -3.23182808e+00 -4.99075740e+00 -8.49751733e+00 0.00000000e+00 0.00000000e+00 0.00000000e+00 0.00000000e+00 
        </DataArray>
        <DataArray type="Float64" Name="v">
          0.00000000e+00 -4.94218616e+00 -3.97662079e+00 -2.27181518e+00 0.00000000e+00 -2.26159612e+00 -1.93324217e+00 -1.06575987e+00 0.00000000e+00 -7.48794566e-01 -6.91701996e-01 -3.64562987e-01 0.00000000e+00 0.00000000e+00 0.00000000e+00 0.00000000e+00 
        </DataArray>
        <DataArray type="Float64" Name="p">
          4.41266089e+02 4.94002783e+02 5.46739478e+02 5.99476172e+02 4.28815402e+02 4.82895585e+02 5.36975769e+02 5.91055952e+02 4.16364715e+02 4.71788387e+02 5.27212059e+02 5.82635732e+02 4.03914028e+02 4.60681189e+02 5.17448350e+02 5.74215512e+02 
        </DataArray>
      </PointData>
    </Piece>
    <Piece NumberOfPoints="16" NumberOfCells="9">
      <Points>
        <DataArray type="Float64" NumberOfComponents="3" format="ascii">
          6.00000000e+00 0.00000000e+00 0.00000000e+00 
7.00000000e+00 0.00000000e+00 0.00000000e+00 
8.00000000e+00 0.00000000e+00 0.00000000e+00 
9.00000000e+00 0.00000000e+00 0.00000000e+00 
6.00000000e+00 3.33333343e-01 0.00000000e+00 
7.00000000e+00 3.33333343e-01 0.00000000e+00 
8.00000000e+00 3.33333343e-01 0.00000000e+00 
9.00000000e+00 3.33333343e-01 0.00000000e+00 
6.00000000e+00 6.66666687e-01 0.00000000e+00 
7.00000000e+00 6.66666687e-01 0.00000000e+00 
8.00000000e+00 6.66666687e-01 0.00000000e+00 
9.00000000e+00 6.66666687e-01 0.00000000e+00 
6.00000000e+00 1.00000000e+00 0.00000000e+00 
7.00000000e+00 1.00000000e+00 0.00000000e+00 
8.00000000e+00 1.00000000e+00 0.00000000e+00 
9.00000000e+00 1.00000000e+00 0.00000000e+00 

        </DataArray>
      </Points>
      <Cells>
        <DataArray type="Int32" Name="connectivity" format="ascii">
0 1 5 4
4 5 9 8
8 9 13 12
1 2 6 5
5 6 10 9
9 10 14 13
2 3 7 6
6 7 11 10
10 11 15 14

        </DataArray>
        <DataArray type="Int32" Name="offsets" format="ascii">
4 8 12 16 20 24 28 32 36 
        </DataArray>
        <DataArray type="UInt8" Name="types" format="ascii">
9 9 9 9 9 9 9 9 9 
        </DataArray>
      </Cells>
      <PointData>
        <DataArray type="Float64" Name="u">