<?xml version="1.0"?>
<VTKFile type="UnstructuredGrid" version="0.1" byte_order="LittleEndian">
  <UnstructuredGrid>
    <Piece NumberOfPoints="36" NumberOfCells="25">
      <Points>
        <DataArray type="Float64" NumberOfComponents="3" format="ascii">
          0.00000000e+00 3.00000000e+00 0.00000000e+00 
6.00000024e-01 3.00000000e+00 0.00000000e+00 
1.20000005e+00 3.00000000e+00 0.00000000e+00 
1.79999995e+00 3.00000000e+00 0.00000000e+00 
2.40000010e+00 3.00000000e+00 0.00000000e+00 
3.00000000e+00 3.00000000e+00 0.00000000e+00 
0.00000000e+00 3.20000005e+00 0.00000000e+00 
6.00000024e-01 3.20000005e+00 0.00000000e+00 
1.20000005e+00 3.20000005e+00 0.00000000e+00 
1.79999995e+00 3.20000005e+00 0.00000000e+00 
2.40000010e+00 3.20000005e+00 0.00000000e+00 
3.00000000e+00 3.20000005e+00 0.00000000e+00 
0.00000000e+00 3.40000010e+00 0.00000000e+00 
6.00000024e-01 3.40000010e+00 0.00000000e+00 
1.20000005e+00 3.40000010e+00 0.00000000e+00 
1.79999995e+00 3.40000010e+00 0.00000000e+00 
2.40000010e+00 3.40000010e+00 0.00000000e+00 
3.00000000e+00 3.40000010e+00 0.00000000e+00 
0.00000000e+00 3.59999990e+00 0.00000000e+00 
6.00000024e-01 3.59999990e+00 0.00000000e+00 
1.20000005e+00 3.59999990e+00 0.00000000e+00 
1.79999995e+00 3.59999990e+00 0.00000000e+00 
2.40000010e+00 3.59999990e+00 0.00000000e+00 
3.00000000e+00 3.59999990e+00 0.00000000e+00 
0.00000000e+00 3.79999995e+00 0.00000000e+00 
6.00000024e-01 3.79999995e+00 0.00000000e+00 
1.20000005e+00 3.79999995e+00 0.00000000e+00 
1.79999995e+00 3.79999995e+00 0.00000000e+00 
2.40000010e+00 3.79999995e+00 0.00000000e+00 
3.00000000e+00 3.79999995e+00 0.00000000e+00 
0.00000000e+00 4.00000000e+00 0.00000000e+00 
6.00000024e-01 4.00000000e+00 0.00000000e+00 
1.20000005e+00 4.00000000e+00 0.00000000e+00 
1.79999995e+00 4.00000000e+00 0.00000000e+00 
2.40000010e+00 4.00000000e+00 0.00000000e+00 
3.00000000e+00 4.00000000e+00 0.00000000e+00 

        </DataArray>
      </Points>
      <Cells>
        <DataArray type="Int32" Name="connectivity" format="ascii">
0 1 7 6
6 7 13 12
12 13 19 18
18 19 25 24
24 25 31 30
1 2 8 7
7 8 14 13
13 14 20 19
19 20 26 25
25 26 32 31
2 3 9 8
8 9 15 14
14 15 21 20
20 21 27 26
26 27 33 32
3 4 10 9
9 10 16 15
15 16 22 21
21 22 28 27
27 28 34 33
4 5 11 10
10 11 17 16
16 17 23 22
22 23 29 28
28 29 35 34

        </DataArray>
        <DataArray type="Int32" Name="offsets" format="ascii">
4 8 12 16 20 24 28 32 36 40 44 48 52 56 60 64 68 72 76 80 84 88 92 96 100 
        </DataArray>
        <DataArray type="UInt8" Name="types" format="ascii">
9 9 9 9 9 9 9 9 9 9 9 9 9 9 9 9 9 9 9 9 9 9 9 9 9 
        </DataArray>
      </Cells>
      <PointData>
        <DataArray type="Float64" Name="u">
          0.00000000e+00 0.00000000e+00 0.00000000e+00 0.00000000e+00 0.00000000e+00 0.00000000e+00 5.60000000e+01 5.57120546e+01 5.58203533e+01 5.63860162e+01 5.60419292e+01 5.53634623e+01 1.04000000e+02 1.03626339e+02 1.03676445e+02 1.04513069e+02 1.04161408e+02 1.03037143e+02 1.44000000e+02 1.43691242e+02 1.43590069e+02 1.44474058e+02 1.44226283e+02 1.43376847e+02 1.76000000e+02 1.75828251e+02 1.75556712e+02 1.76387613e+02 1.76210476e+02 1.75979089e+02 2.00000000e+02 1.99975767e+02 1.99556314e+02 2.00319499e+02 2.00153044e+02 2.00480584e+02 
        </DataArray>
        <DataArray type="Float64" Name="v">
          0.00000000e+00 0.00000000e+00 0.00000000e+00 0.00000000e+00 0.00000000e+00 0.00000000e+00 0.00000000e+00 1.69316916e-01 3.23889293e-02 -3.51521884e-01 3.87465118e-01 -1.29802919e+00 0.00000000e+00 1.78755913e-01 -6.18432514e-05 -3.60597192e-01 4.34795905e-01 -1.24592906e+00 0.00000000e+00 1.29664782e-01 -4.82382220e-02 -2.42245657e-01 3.34817824e-01 -6.63316459e-01 0.00000000e+00 7.91696340e-02 -7.52505782e-02 -1.33016140e-01 2.23847252e-01 -1.76959587e-01 0.00000000e+00 4.22121087e-02 -7.69814353e-02 -5.84218438e-02 1.31318158e-01 9.05579723e-02 
        </DataArray>
        <DataArray type="Float64" Name="p">
          2.31046359e+04 1.83819413e+04 1.35930838e+04 8.77414572e+03 3.96120945e+03 -8.09642629e+02 2.31129884e+04 1.83746412e+04 1.35929121e+04 8.78293467e+03 3.95984279e+03 -8.61229765e+02 2.31035545e+04 1.83726285e+04 1.35948956e+04 8.78492008e+03 3.95726663e+03 -8.73500281e+02 2.30854719e+04 1.83739439e+04 1.35979262e+04 8.78281108e+03 3.95399063e+03 -8.63142904e+02 2.30678783e+04 1.83766281e+04 1.36008962e+04 8.77931679e+03 3.95052447e+03 -8.46846361e+02 2.30599115e+04 1.83787220e+04 1.36026973e+04 8.77714634e+03 3.94737784e+03 -8.41299382e+02 
        </DataArray>
      </PointData>
    </Piece>
    <Piece NumberOfPoints="36" NumberOfCells="25">
      <Points>
        <DataArray type="Float64" NumberOfComponents="3" format="ascii">
          0.00000000e+00 4.00000000e+00 0.00000000e+00 
6.00000024e-01 4.00000000e+00 0.00000000e+00 
1.20000005e+00 4.00000000e+00 0.00000000e+00 
1.79999995e+00 4.00000000e+00 0.00000000e+00 
2.40000010e+00 4.00000000e+00 0.00000000e+00 
3.00000000e+00 4.00000000e+00 0.00000000e+00 
0.00000000e+00 4.19999981e+00 0.00000000e+00 
6.00000024e-01 4.19999981e+00 0.00000000e+00 
1.20000005e+00 4.19999981e+00 0.00000000e+00 
1.79999995e+00 4.19999981e+00 0.00000000e+00 
2.40000010e+00 4.19999981e+00 0.00000000e+00 
3.00000000e+00 4.19999981e+00 0.00000000e+00 
0.00000000e+00 4.40000010e+00 0.00000000e+00 
6.00000024e-01 4.40000010e+00 0.00000000e+00 
1.20000005e+00 4.40000010e+00 0.00000000e+00 
1.79999995e+00 4.40000010e+00 0.00000000e+00 
2.40000010e+00 4.40000010e+00 0.00000000e+00 
3.00000000e+00 4.40000010e+00 0.00000000e+00 
0.00000000e+00 4.59999990e+00 0.00000000e+00 
6.00000024e-01 4.59999990e+00 0.00000000e+00 
1.20000005e+00 4.59999990e+00 0.00000000e+00 
1.79999995e+00 4.59999990e+00 0.00000000e+00 
2.40000010e+00 4.59999990e+00 0.00000000e+00 
3.00000000e+00 4.59999990e+00 0.00000000e+00 
0.00000000e+00 4.80000019e+00 0.00000000e+00 
6.00000024e-01 4.80000019e+00 0.00000000e+00 
1.20000005e+00 4.80000019e+00 0.00000000e+00 
1.79999995e+00 4.80000019e+00 0.00000000e+00 
2.40000010e+00 4.80000019e+00 0.00000000e+00 
3.00000000e+00 4.80000019e+00 0.00000000e+00 
0.00000000e+00 5.00000000e+00 0.00000000e+00 
6.00000024e-01 5.00000000e+00 0.00000000e+00 
1.20000005e+00 5.00000000e+00 0.00000000e+00 
1.79999995e+00 5.00000000e+00 0.00000000e+00 
2.40000010e+00 5.00000000e+00 0.00000000e+00 
3.00000000e+00 5.00000000e+00 0.00000000e+00 

        </DataArray>
      </Points>
      <Cells>
        <DataArray type="Int32" Name="connectivity" format="ascii">
0 1 7 6
6 7 13 12
12 13 19 18
18 19 25 24
24 25 31 30
1 2 8 7
7 8 14 13
13 14 20 19
19 20 26 25
25 26 32 31
2 3 9 8
8 9 15 14
14 15 21 20
20 21 27 26
26 27 33 32
3 4 10 9
9 10 16 15
15 16 22 21
21 22 28 27
27 28 34 33
4 5 11 10
10 11 17 16
16 17 23 22
22 23 29 28
28 29 35 34

        </DataArray>
        <DataArray type="Int32" Name="offsets" format="ascii">
4 8 12 16 20 24 28 32 36 40 44 48 52 56 60 64 68 72 76 80 84 88 92 96 100 
        </DataArray>
        <DataArray type="UInt8" Name="types" format="ascii">
9 9 9 9 9 9 9 9 9 9 9 9 9 9 9 9 9 9 9 9 9 9 9 9 9 
        </DataArray>
      </Cells>
      <PointData>
        <DataArray type="Float64" Name="u">
          2.00000000e+02 1.99975767e+02 1.99556314e+02 2.00319499e+02 2.00153044e+02 2.00480584e+02 2.16000000e+02 2.16095464e+02 2.15567902e+02 2.16280472e+02 2.16095048e+02 2.16817577e+02 2.24000000e+02 2.24161437e+02 2.23576960e+02 2.24265178e+02 2.24060561e+02 2.24980575e+02 2.24000000e+02 2.24161437e+02 2.23576960e+02 2.24265178e+02 2.24060561e+02 2.24980575e+02 2.16000000e+02 2.16095464e+02 2.15567902e+02 2.16280472e+02 2.16095048e+02 2.16817577e+02 2.00000000e+02 1.99975767e+02 1.99556314e+02 2.00319499e+02 2.00153044e+02 2.00480584e+02 
        </DataArray>
        <DataArray type="Float64" Name="v">
          0.00000000e+00 4.22121087e-02 -7.69814353e-02 -5.84218438e-02 1.31318158e-01 9.05579723e-02 0.00000000e+00 2.00044780e-02 -5.63626479e-02 -2.01029788e-02 6.60999910e-02 1.47433387e-01 0.00000000e+00 5.98324149e-03 -2.10518745e-02 -3.28860067e-03 1.84388575e-02 7.13174008e-02 0.00000000e+00 -5.98323770e-03 2.10518682e-02 3.28859662e-03 -1.84388488e-02 -7.13173575e-02 0.00000000e+00 -2.00044745e-02 5.63626423e-02 2.01029749e-02 -6.60999830e-02 -1.47433346e-01 0.00000000e+00 -4.22121058e-02 7.69814308e-02 5.84218404e-02 -1.31318151e-01 -9.05579364e-02 
        </DataArray>
        <DataArray type="Float64" Name="p">
          2.30573970e+04 1.83789905e+04 1.36029246e+04 8.77661937e+03 3.94749482e+03 -8.37028979e+02 2.30532761e+04 1.83808082e+04 1.36040691e+04 8.77490032e+03 3.94514315e+03 -8.33360985e+02 2.30512156e+04 1.83817170e+04 1.36046414e+04 8.77404079e+03 3.94396731e+03 -8.31526988e+02 2.30512156e+04 1.83817170e+04 1.36046414e+04 8.77404079e+03 3.94396731e+03 -8.31526988e+02 2.30532761e+04 1.83808082e+04 1.36040691e+04 8.77490032e+03 3.94514315e+03 -8.33360986e+02 2.30573970e+04 1.83789905e+04 1.36029246e+04 8.77661937e+03 3.94749482e+03 -8.37028980e+02 
        </DataArray>
      </PointData>
    </Piece>
    <Piece NumberOfPoints="36" NumberOfCells="25">
      <Points>
        <DataArray type="Float64" NumberOfComponents="3" format="ascii">
          0.00000000e+00 5.00000000e+00 0.00000000e+00 
6.00000024e-01 5.00000000e+00 0.00000000e+00 
1.20000005e+00 5.00000000e+00 0.00000000e+00 
1.79999995e+00 5.00000000e+00 0.00000000e+00 
2.40000010e+00 5.00000000e+00 0.00000000e+00 
3.00000000e+00 5.00000000e+00 0.00000000e+00 
0.00000000e+00 5.19999981e+00 0.00000000e+00 
6.00000024e-01 5.19999981e+00 0.00000000e+00 
1.20000005e+00 5.19999981e+00 0.00000000e+00 
1.79999995e+00 5.19999981e+00 0.00000000e+00 
2.40000010e+00 5.19999981e+00 0.00000000e+00 
3.00000000e+00 5.19999981e+00 0.00000000e+00 
0.00000000e+00 5.40000010e+00 0.00000000e+00 
6.00000024e-01 5.40000010e+00 0.00000000e+00 
1.20000005e+00 5.40000010e+00 0.00000000e+00 
1.79999995e+00 5.40000010e+00 0.00000000e+00 
2.40000010e+00 5.40000010e+00 0.00000000e+00 
3.00000000e+00 5.40000010e+00 0.00000000e+00 
0.00000000e+00 5.59999990e+00 0.00000000e+00 
6.00000024e-01 5.59999990e+00 0.00000000e+00 
1.20000005e+00 5.59999990e+00 0.00000000e+00 
1.79999995e+00 5.59999990e+00 0.00000000e+00 
2.40000010e+00 5.59999990e+00 0.00000000e+00 
3.00000000e+00 5.59999990e+00 0.00000000e+00 
0.00000000e+00 5.80000019e+00 0.00000000e+00 
6.00000024e-01 5.80000019e+00 0.00000000e+00 
1.20000005e+00 5.80000019e+00 0.00000000e+00 
1.79999995e+00 5.80000019e+00 0.00000000e+00 
2.40000010e+00 5.80000019e+00 0.00000000e+00 
3.00000000e+00 5.80000019e+00 0.00000000e+00 
0.00000000e+00 6.00000000e+00 0.00000000e+00 
6.00000024e-01 6.00000000e+00 0.00000000e+00 
1.20000005e+00 6.00000000e+00 0.00000000e+00 
1.79999995e+00 6.00000000e+00 0.00000000e+00 
2.40000010e+00 6.00000000e+00 0.00000000e+00 
3.00000000e+00 6.00000000e+00 0.00000000e+00 

        </DataArray>
      </Points>
      <Cells>
        <DataArray type="Int32" Name="connectivity" format="ascii">
0 1 7 6
6 7 13 12
12 13 19 18
18 19 25 24
24 25 31 30
1 2 8 7
7 8 14 13
13 14 20 19
19 20 26 25
25 26 32 31
2 3 9 8
8 9 15 14
14 15 21 20
20 21 27 26
26 27 33 32
3 4 10 9
9 10 16 15
15 16 22 21
21 22 28 27
27 28 34 33
4 5 11 10
10 11 17 16
16 17 23 22
22 23 29 28
28 29 35 34

        </DataArray>
        <DataArray type="Int32" Name="offsets" format="ascii">
4 8 12 16 20 24 28 32 36 40 44 48 52 56 60 64 68 72 76 80 84 88 92 96 100 
        </DataArray>
        <DataArray type="UInt8" Name="types" format="ascii">
9 9 9 9 9 9 9 9 9 9 9 9 9 9 9 9 9 9 9 9 9 9 9 9 9 
        </DataArray>
      </Cells>
      <PointData>
        <DataArray type="Float64" Name="u">
          2.00000000e+02 1.99975767e+02 1.99556314e+02 2.00319499e+02 2.00153044e+02 2.00480584e+02 1.76000000e+02 1.75828251e+02 1.75556712e+02 1.76387613e+02 1.76210476e+02 1.75979089e+02 1.44000000e+02 1.43691242e+02 1.43590069e+02 1.44474058e+02 1.44226283e+02 1.43376847e+02 1.04000000e+02 1.03626339e+02 1.03676445e+02 1.04513069e+02 1.04161408e+02 1.03037143e+02 5.60000000e+01 5.57120546e+01 5.58203533e+01 5.63860163e+01 5.60419292e+01 5.53634624e+01 0.00000000e+00 0.00000000e+00 0.00000000e+00 0.00000000e+00 0.00000000e+00 0.00000000e+00 
        </DataArray>
        <DataArray type="Float64" Name="v">
          0.00000000e+00 -4.22121058e-02 7.69814308e-02 5.84218404e-02 -1.31318151e-01 -9.05579364e-02 0.00000000e+00 -7.91696317e-02 7.52505751e-02 1.33016138e-01 -2.23847246e-01 1.76959616e-01 0.00000000e+00 -1.29664781e-01 4.82382203e-02 2.42245655e-01 -3.34817820e-01 6.63316478e-01 0.00000000e+00 -1.78755912e-01 6.18425658e-05 3.60597190e-01 -4.34795903e-01 1.24592907e+00 0.00000000e+00 -1.69316916e-01 -3.23889294e-02 3.51521884e-01 -3.87465117e-01 1.29802919e+00 0.00000000e+00 0.00000000e+00 0.00000000e+00 0.00000000e+00 0.00000000e+00 0.00000000e+00 
        </DataArray>
        <DataArray type="Float64" Name="p">
          2.30599115e+04 1.83787220e+04 1.36026973e+04 8.77714634e+03 3.94737784e+03 -8.41299384e+02 2.30678783e+04 1.83766281e+04 1.36008962e+04 8.77931679e+03 3.95052447e+03 -8.46846363e+02 2.30854719e+04 1.83739439e+04 1.35979263e+04 8.78281108e+03 3.95399063e+03 -8.63142906e+02 2.31035545e+04 1.83726285e+04 1.35948956e+04 8.78492008e+03 3.95726663e+03 -8.73500283e+02 2.31129884e+04 1.83746412e+04 1.35929121e+04 8.78293467e+03 3.95984279e+03 -8.61229768e+02 2.31046359e+04 1.83819413e+04 1.35930838e+04 8.77414572e+03 3.96120945e+03 -8.09642631e+02 
        </DataArray>
      </PointData>
    </Piece>
    <Piece NumberOfPoints="36" NumberOfCells="25">
      <Points>
        <DataArray type="Float64" NumberOfComponents="3" format="ascii">
          3.00000000e+00 0.00000000e+00 0.00000000e+00 
3.59999990e+00 0.00000000e+00 0.00000000e+00 
4.19999981e+00 0.00000000e+00 0.00000000e+00 
4.80000019e+00 0.00000000e+00 0.00000000e+00 
5.40000010e+00 0.00000000e+00 0.00000000e+00 
6.00000000e+00 0.00000000e+00 0.00000000e+00 
3.00000000e+00 2.00000003e-01 0.00000000e+00 
3.59999990e+00 2.00000003e-01 0.00000000e+00 
4.19999981e+00 2.00000003e-01 0.00000000e+00 
4.80000019e+00 2.00000003e-01 0.00000000e+00 
5.40000010e+00 2.00000003e-01 0.00000000e+00 
6.00000000e+00 2.00000003e-01 0.00000000e+00 
3.00000000e+00 4.00000006e-01 0.00000000e+00 
3.59999990e+00 4.00000006e-01 0.00000000e+00 
4.19999981e+00 4.00000006e-01 0.00000000e+00 
4.80000019e+00 4.00000006e-01 0.00000000e+00 
5.40000010e+00 4.00000006e-01 0.00000000e+00 
6.00000000e+00 4.00000006e-01 0.00000000e+00 
3.00000000e+00 6.00000024e-01 0.00000000e+00 
3.59999990e+00 6.00000024e-01 0.00000000e+00 
4.19999981e+00 6.00000024e-01 0.00000000e+00 
4.80000019e+00 6.00000024e-01 0.00000000e+00 
5.40000010e+00 6.00000024e-01 0.00000000e+00 
6.00000000e+00 6.00000024e-01 0.00000000e+00 
3.00000000e+00 8.00000012e-01 0.00000000e+00 
3.59999990e+00 8.00000012e-01 0.00000000e+00 
4.19999981e+00 8.00000012e-01 0.00000000e+00 
4.80000019e+00 8.00000012e-01 0.00000000e+00 
5.40000010e+00 8.00000012e-01 0.00000000e+00 
6.00000000e+00 8.00000012e-01 0.00000000e+00 
3.00000000e+00 1.00000000e+00 0.00000000e+00 
3.59999990e+00 1.00000000e+00 0.00000000e+00 
4.19999981e+00 1.00000000e+00 0.00000000e+00 
4.80000019e+00 1.00000000e+00 0.00000000e+00 
5.40000010e+00 1.00000000e+00 0.00000000e+00 
6.00000000e+00 1.00000000e+00 0.00000000e+00 

        </DataArray>
      </Points>
      <Cells>
        <DataArray type="Int32" Name="connectivity" format="ascii">
0 1 7 6
6 7 13 12
12 13 19 18
18 19 25 24
24 25 31 30
1 2 8 7
7 8 14 13
13 14 20 19
19 20 26 25
25 26 32 31
2 3 9 8
8 9 15 14
14 15 21 20
20 21 27 26
26 27 33 32
3 4 10 9
9 10 16 15
15 16 22 21
21 22 28 27
27 28 34 33
4 5 11 10
10 11 17 16
16 17 23 22
22 23 29 28
28 29 35 34

        </DataArray>
        <DataArray type="Int32" Name="offsets" format="ascii">
4 8 12 16 20 24 28 32 36 40 44 48 52 56 60 64 68 72 76 80 84 88 92 96 100 
        </DataArray>
        <DataArray type="UInt8" Name="types" format="ascii">
9 9 9 9 9 9 9 9 9 9 9 9 9 9 9 9 9 9 9 9 9 9 9 9 9 
        </DataArray>
      </Cells>
      <PointData>
        <DataArray type="Float64" Name="u">
          0.00000000e+00 0.00000000e+00 0.00000000e+00 0.00000000e+00 0.00000000e+00 0.00000000e+00 0.00000000e+00 -6.18867312e+00 -1.01802354e+01 -8.95343573e+00 -4.46386052e+00 -2.50296544e+00 0.00000000e+00 -1.12393152e+01 -1.78217293e+01 -1.51505973e+01 -7.25470225e+00 -3.52406055e+00 0.00000000e+00 -1.51192043e+01 -2.29364587e+01 -1.86842660e+01 -8.38729450e+00 -3.17582721e+00 0.00000000e+00 -1.77802583e+01 -2.55430909e+01 -1.96711665e+01 -7.90602718e+00 -1.53833561e+00 0.00000000e+00 -1.91715579e+01 -2.56836776e+01 -1.82478844e+01 -5.87030962e+00 1.32786177e+00 
        </DataArray>
        <DataArray type="Float64" Name="v">
          0.00000000e+00 0.00000000e+00 0.00000000e+00 0.00000000e+00 0.00000000e+00 0.00000000e+00 0.00000000e+00 2.93612185e-01 2.07148205e-02 -1.93336235e-01 -5.36033971e-02 -2.13222224e-01 0.00000000e+00 1.03854955e+00 2.53130775e-02 -6.19561960e-01 -2.94290591e-01 -4.59513101e-01 0.00000000e+00 2.11191367e+00 -4.64038735e-02 -1.22133225e+00 -6.66293777e-01 -7.61405988e-01 0.00000000e+00 3.39660051e+00 -2.41031835e-01 -1.94622121e+00 -1.11587605e+00 -1.13896988e+00 0.00000000e+00 4.77603615e+00 -6.00547852e-01 -2.74982341e+00 -1.58831530e+00 -1.61594708e+00 
        </DataArray>
        <DataArray type="Float64" Name="p">
          -1.06873631e+03 -9.07093625e+02 2.92226208e+02 1.91539786e+03 3.34859599e+03 3.97799526e+03 -1.04491341e+03 -8.90199683e+02 2.94594301e+02 1.90531490e+03 3.33780846e+03 3.98792134e+03 -1.02052619e+03 -8.79091002e+02 2.93772217e+02 1.89712596e+03 3.33003274e+03 3.99155504e+03 -9.97554079e+02 -8.74549808e+02 2.89368434e+02 1.89049618e+03 3.32512894e+03 3.98956227e+03 -9.77976473e+02 -8.77358328e+02 2.80991426e+02 1.88509065e+03 3.32295720e+03 3.98260893e+03 -9.63772786e+02 -8.88298786e+02 2.68249671e+02 1.88057450e+03 3.32337762e+03 3.97136094e+03 
        </DataArray>
      </PointData>
    </Piece>
    <Piece NumberOfPoints="36" NumberOfCells="25">
      <Points>
        <DataArray type="Float64" NumberOfComponents="3" format="ascii">
          3.00000000e+00 1.00000000e+00 0.00000000e+00 
3.59999990e+00 1.00000000e+00 0.00000000e+00 
4.19999981e+00 1.00000000e+00 0.00000000e+00 
4.80000019e+00 1.00000000e+00 0.00000000e+00 
5.40000010e+00 1.00000000e+00 0.00000000e+00 
6.00000000e+00 1.00000000e+00 0.00000000e+00 
3.00000000e+00 1.20000005e+00 0.00000000e+00 
3.59999990e+00 1.20000005e+00 0.00000000e+00 
4.19999981e+00 1.20000005e+00 0.00000000e+00 
4.80000019e+00 1.20000005e+00 0.00000000e+00 
5.40000010e+00 1.20000005e+00 0.00000000e+00 
6.00000000e+00 1.20000005e+00 0.00000000e+00 
3.00000000e+00 1.39999998e+00 0.00000000e+00 
3.59999990e+00 1.39999998e+00 0.00000000e+00 
4.19999981e+00 1.39999998e+00 0.00000000e+00 
4.80000019e+00 1.39999998e+00 0.00000000e+00 
5.40000010e+00 1.39999998e+00 0.00000000e+00 
6.00000000e+00 1.39999998e+00 0.00000000e+00 
3.00000000e+00 1.60000002e+00 0.00000000e+00 
3.59999990e+00 1.60000002e+00 0.00000000e+00 
4.19999981e+00 1.60000002e+00 0.00000000e+00 
4.80000019e+00 1.60000002e+00 0.00000000e+00 
5.40000010e+00 1.60000002e+00 0.00000000e+00 
6.00000000e+00 1.60000002e+00 0.00000000e+00 
3.00000000e+00 1.79999995e+00 0.00000000e+00 
3.59999990e+00 1.79999995e+00 0.00000000e+00 
4.19999981e+00 1.79999995e+00 0.00000000e+00 
4.80000019e+00 1.79999995e+00 0.00000000e+00 
5.40000010e+00 1.79999995e+00 0.00000000e+00 
6.00000000e+00 1.79999995e+00 0.00000000e+00 
3.00000000e+00 2.00000000e+00 0.00000000e+00 
3.59999990e+00 2.00000000e+00 0.00000000e+00 
4.19999981e+00 2.00000000e+00 0.00000000e+00 
4.80000019e+00 2.00000000e+00 0.00000000e+00 
5.40000010e+00 2.00000000e+00 0.00000000e+00 
6.00000000e+00 2.00000000e+00 0.00000000e+00 

        </DataArray>
      </Points>
      <Cells>
        <DataArray type="Int32" Name="connectivity" format="ascii">
0 1 7 6
6 7 13 12
12 13 19 18
18 19 25 24
24 25 31 30
1 2 8 7
7 8 14 13
13 14 20 19
19 20 26 25
25 26 32 31
2 3 9 8
8 9 15 14
14 15 21 20
20 21 27 26
26 27 33 32
3 4 10 9
9 10 16 15
15 16 22 21
21 22 28 27
27 28 34 33
4 5 11 10
10 11 17 16
16 17 23 22
22 23 29 28
28 29 35 34

        </DataArray>
        <DataArray type="Int32" Name="offsets" format="ascii">
4 8 12 16 20 24 28 32 36 40 44 48 52 56 60 64 68 72 76 80 84 88 92 96 100 
        </DataArray>
        <DataArray type="UInt8" Name="types" format="ascii">
9 9 9 9 9 9 9 9 9 9 9 9 9 9 9 9 9 9 9 9 9 9 9 9 9 
        </DataArray>
      </Cells>
      <PointData>
        <DataArray type="Float64" Name="u">
          0.00000000e+00 -1.91715579e+01 -2.56836776e+01 -1.82478844e+01 -5.87030962e+00 1.32786177e+00 0.00000000e+00 -1.92453991e+01 -2.34321458e+01 -1.45669697e+01 -2.34704560e+00 5.37372426e+00 0.00000000e+00 -1.79490019e+01 -1.88935530e+01 -8.79656371e+00 2.58950499e+00 1.05562434e+01 0.00000000e+00 -1.52110737e+01 -1.22010697e+01 -1.12315536e+00 8.85707809e+00 1.68294708e+01 0.00000000e+00 -1.09101978e+01 -3.50822519e+00 8.24250369e+00 1.63664843e+01 2.41235749e+01 0.00000000e+00 -4.83263841e+00 7.02077063e+00 1.90607415e+01 2.50225256e+01 3.23247450e+01 
        </DataArray>
        <DataArray type="Float64" Name="v">
          0.00000000e+00 4.77603615e+00 -6.00547852e-01 -2.74982341e+00 -1.58831530e+00 -1.61594708e+00 0.00000000e+00 6.13793889e+00 -1.15270672e+00 -3.59212076e+00 -2.03454357e+00 -2.21668800e+00 0.00000000e+00 7.37227803e+00 -1.91124781e+00 -4.43636747e+00 -2.41431820e+00 -2.95944699e+00 0.00000000e+00 8.36676872e+00 -2.87609480e+00 -5.24487687e+00 -2.70131287e+00 -3.84592030e+00 0.00000000e+00 9.01880353e+00 -4.01855399e+00 -5.98364378e+00 -2.89019956e+00 -4.84209781e+00 0.00000000e+00 9.21267089e+00 -5.28448881e+00 -6.61189261e+00 -3.00141290e+00 -5.87192720e+00 
        </DataArray>
        <DataArray type="Float64" Name="p">
          -9.63864929e+02 -8.88464912e+02 2.68255451e+02 1.88073354e+03 3.32340674e+03 3.97071243e+03 -9.58561083e+02 -9.06182037e+02 2.52809352e+02 1.87714981e+03 3.32557605e+03 3.95682481e+03 -9.64255525e+02 -9.30587076e+02 2.35293588e+02 1.87475701e+03 3.32917372e+03 3.93991427e+03 -9.83855740e+02 -9.58454823e+02 2.18283633e+02 1.87316110e+03 3.33297907e+03 3.92453901e+03 -1.02026921e+03 -9.86560070e+02 2.04354965e+02 1.87196807e+03 3.33577143e+03 3.91525723e+03 -1.07640343e+03 -1.01167761e+03 1.96083058e+02 1.87078387e+03 3.33633013e+03 3.91662713e+03 
        </DataArray>
      </PointData>
    </Piece>
    <Piece NumberOfPoints="36" NumberOfCells="25">
      <Points>
        <DataArray type="Float64" NumberOfComponents="3" format="ascii">
          3.00000000e+00 2.00000000e+00 0.00000000e+00 
3.59999990e+00 2.00000000e+00 0.00000000e+00 
4.19999981e+00 2.00000000e+00 0.00000000e+00 
4.80000019e+00 2.00000000e+00 0.00000000e+00 
5.40000010e+00 2.00000000e+00 0.00000000e+00 
6.00000000e+00 2.00000000e+00 0.00000000e+00 
3.00000000e+00 2.20000005e+00 0.00000000e+00 
3.59999990e+00 2.20000005e+00 0.00000000e+00 
4.19999981e+00 2.20000005e+00 0.00000000e+00 
4.80000019e+00 2.20000005e+00 0.00000000e+00 
5.40000010e+00 2.20000005e+00 0.00000000e+00 
6.00000000e+00 2.20000005e+00 0.00000000e+00 
3.00000000e+00 2.40000010e+00 0.00000000e+00 
3.59999990e+00 2.40000010e+00 0.00000000e+00 
4.19999981e+00 2.40000010e+00 0.00000000e+00 
4.80000019e+00 2.40000010e+00 0.00000000e+00 
5.40000010e+00 2.40000010e+00 0.00000000e+00 
6.00000000e+00 2.40000010e+00 0.00000000e+00 
3.00000000e+00 2.59999990e+00 0.00000000e+00 
3.59999990e+00 2.59999990e+00 0.00000000e+00 
4.19999981e+00 2.59999990e+00 0.00000000e+00 
4.80000019e+00 2.59999990e+00 0.00000000e+00 
5.40000010e+00 2.59999990e+00 0.00000000e+00 
6.00000000e+00 2.59999990e+00 0.00000000e+00 
3.00000000e+00 2.79999995e+00 0.00000000e+00 
3.59999990e+00 2.79999995e+00 0.00000000e+00 
4.19999981e+00 2.79999995e+00 0.00000000e+00 
4.80000019e+00 2.79999995e+00 0.00000000e+00 
5.40000010e+00 2.79999995e+00 0.00000000e+00 
6.00000000e+00 2.79999995e+00 0.00000000e+00 
3.00000000e+00 3.00000000e+00 0.00000000e+00 
3.59999990e+00 3.00000000e+00 0.00000000e+00 
4.19999981e+00 3.00000000e+00 0.00000000e+00 
4.80000019e+00 3.00000000e+00 0.00000000e+00 
5.40000010e+00 3.00000000e+00 0.00000000e+00 
6.00000000e+00 3.00000000e+00 0.00000000e+00 

        </DataArray>
      </Points>
      <Cells>
        <DataArray type="Int32" Name="connectivity" format="ascii">
0 1 7 6
6 7 13 12
12 13 19 18
18 19 25 24
24 25 31 30
1 2 8 7
7 8 14 13
13 14 20 19
19 20 26 25
25 26 32 31
2 3 9 8
8 9 15 14
14 15 21 20
20 21 27 26
26 27 33 32
3 4 10 9
9 10 16 15
15 16 22 21
21 22 28 27
27 28 34 33
4 5 11 10
10 11 17 16
16 17 23 22
22 23 29 28
28 29 35 34

        </DataArray>
        <DataArray type="Int32" Name="offsets" format="ascii">
4 8 12 16 20 24 28 32 36 40 44 48 52 56 60 64 68 72 76 80 84 88 92 96 100 
        </DataArray>
        <DataArray type="UInt8" Name="types" format="ascii">
9 9 9 9 9 9 9 9 9 9 9 9 9 9 9 9 9 9 9 9 9 9 9 9 9 
        </DataArray>
      </Cells>
      <PointData>
        <DataArray type="Float64" Name="u">
          0.00000000e+00 -4.83263841e+00 7.02077063e+00 1.90607415e+01 2.50225256e+01 3.23247450e+01 0.00000000e+00 3.38087128e+00 1.92186181e+01 3.10623885e+01 3.47259427e+01 4.12572794e+01 0.00000000e+00 1.42646162e+01 3.29040536e+01 4.39662346e+01 4.53615717e+01 5.07139423e+01 0.00000000e+00 2.85867230e+01 4.78487075e+01 5.74978643e+01 5.68070231e+01 6.04502564e+01 0.00000000e+00 4.72517181e+01 6.36930160e+01 7.14513229e+01 6.88715011e+01 7.03877703e+01 0.00000000e+00 7.10152886e+01 7.98338795e+01 8.57720530e+01 8.11831772e+01 8.09335939e+01 
        </DataArray>
        <DataArray type="Float64" Name="v">
          0.00000000e+00 9.21267089e+00 -5.28448881e+00 -6.61189261e+00 -3.00141290e+00 -5.87192720e+00 0.00000000e+00 8.82601403e+00 -6.57226275e+00 -7.08861376e+00 -3.08846680e+00 -6.80329902e+00 0.00000000e+00 7.73318971e+00 -7.71246300e+00 -7.37900011e+00 -3.23973836e+00 -7.45376742e+00 0.00000000e+00 5.83343846e+00 -8.43255297e+00 -7.47920571e+00 -3.57213341e+00 -7.59836164e+00 0.00000000e+00 2.90934739e+00 -8.35519260e+00 -7.36870396e+00 -4.25804109e+00 -7.09562537e+00 0.00000000e+00 -1.16125382e+00 -6.94764675e+00 -7.09918949e+00 -5.47393413e+00 -5.93650368e+00 
        </DataArray>
        <DataArray type="Float64" Name="p">
          -1.07460070e+03 -1.00935807e+03 1.96681256e+02 1.86978237e+03 3.33621034e+03 3.92223026e+03 -1.15807091e+03 -1.02903846e+03 1.97366312e+02 1.86874172e+03 3.33268609e+03 3.93679774e+03 -1.26734196e+03 -1.03221484e+03 2.12068005e+02 1.86435105e+03 3.32347874e+03 3.98829556e+03 -1.41671937e+03 -1.02159655e+03 2.43537165e+02 1.85950497e+03 3.30713004e+03 4.06723556e+03 -1.62050868e+03 -9.99892923e+02 2.94524618e+02 1.85709811e+03 3.28218173e+03 4.16412963e+03 -1.89301541e+03 -9.69813286e+02 3.67781193e+02 1.86002511e+03 3.24717555e+03 4.26948960e+03 
        </DataArray>
      </PointData>
    </Piece>
    <Piece NumberOfPoints="36" NumberOfCells="25">
      <Points>
        <DataArray type="Float64" NumberOfComponents="3" format="ascii">
          3.00000000e+00 3.00000000e+00 0.00000000e+00 
3.59999990e+00 3.00000000e+00 0.00000000e+00 
4.19999981e+00 3.00000000e+00 0.00000000e+00 
4.80000019e+00 3.00000000e+00 0.00000000e+00 
5.40000010e+00 3.00000000e+00 0.00000000e+00 
6.00000000e+00 3.00000000e+00 0.00000000e+00 
3.00000000e+00 3.20000005e+00 0.00000000e+00 
3.59999990e+00 3.20000005e+00 0.00000000e+00 
4.19999981e+00 3.20000005e+00 0.00000000e+00 
4.80000019e+00 3.20000005e+00 0.00000000e+00 
5.40000010e+00 3.20000005e+00 0.00000000e+00 
6.00000000e+00 3.20000005e+00 0.00000000e+00 
3.00000000e+00 3.40000010e+00 0.00000000e+00 
3.59999990e+00 3.40000010e+00 0.00000000e+00 
4.19999981e+00 3.40000010e+00 0.00000000e+00 
4.80000019e+00 3.40000010e+00 0.00000000e+00 
5.40000010e+00 3.40000010e+00 0.00000000e+00 
6.00000000e+00 3.40000010e+00 0.00000000e+00 
3.00000000e+00 3.59999990e+00 0.00000000e+00 
3.59999990e+00 3.59999990e+00 0.00000000e+00 
4.19999981e+00 3.59999990e+00 0.00000000e+00 
4.80000019e+00 3.59999990e+00 0.00000000e+00 
5.40000010e+00 3.59999990e+00 0.00000000e+00 
6.00000000e+00 3.59999990e+00 0.00000000e+00 
3.00000000e+00 3.79999995e+00 0.00000000e+00 
3.59999990e+00 3.79999995e+00 0.00000000e+00 
4.19999981e+00 3.79999995e+00 0.00000000e+00 
4.80000019e+00 3.79999995e+00 0.00000000e+00 
5.40000010e+00 3.79999995e+00 0.00000000e+00 
6.00000000e+00 3.79999995e+00 0.00000000e+00 
3.00000000e+00 4.00000000e+00 0.00000000e+00 
3.59999990e+00 4.00000000e+00 0.00000000e+00 
4.19999981e+00 4.00000000e+00 0.00000000e+00 
4.80000019e+00 4.00000000e+00 0.00000000e+00 
5.40000010e+00 4.00000000e+00 0.00000000e+00 
6.00000000e+00 4.00000000e+00 0.00000000e+00 

        </DataArray>
      </Points>
      <Cells>
        <DataArray type="Int32" Name="connectivity" format="ascii">
0 1 7 6
6 7 13 12
12 13 19 18
18 19 25 24
24 25 31 30
1 2 8 7
7 8 14 13
13 14 20 19
19 20 26 25
25 26 32 31
2 3 9 8
8 9 15 14
14 15 21 20
20 21 27 26
26 27 33 32
3 4 10 9
9 10 16 15
15 16 22 21
21 22 28 27
27 28 34 33
4 5 11 10
10 11 17 16
16 17 23 22
22 23 29 28
28 29 35 34

        </DataArray>
        <DataArray type="Int32" Name="offsets" format="ascii">
4 8 12 16 20 24 28 32 36 40 44 48 52 56 60 64 68 72 76 80 84 88 92 96 100 
        </DataArray>
        <DataArray type="UInt8" Name="types" format="ascii">
9 9 9 9 9 9 9 9 9 9 9 9 9 9 9 9 9 9 9 9 9 9 9 9 9 
        </DataArray>
      </Cells>
      <PointData>
        <DataArray type="Float64" Name="u">