<?xml version="1.0"?>
<VTKFile type="UnstructuredGrid" version="0.1" byte_order="LittleEndian">
  <UnstructuredGrid>
    <Piece NumberOfPoints="16" NumberOfCells="9">
      <Points>
        <DataArray type="Float64" NumberOfComponents="3" format="ascii">
          0.00000000e+00 3.00000000e+00 0.00000000e+00 
1.00000000e+00 3.00000000e+00 0.00000000e+00 
2.00000000e+00 3.00000000e+00 0.00000000e+00 
3.00000000e+00 3.00000000e+00 0.00000000e+00 
0.00000000e+00 3.33333325e+00 0.00000000e+00 
1.00000000e+00 3.33333325e+00 0.00000000e+00 
2.00000000e+00 3.33333325e+00 0.00000000e+00 
3.00000000e+00 3.33333325e+00 0.00000000e+00 
0.00000000e+00 3.66666675e+00 0.00000000e+00 
1.00000000e+00 3.66666675e+00 0.00000000e+00 
2.00000000e+00 3.66666675e+00 0.00000000e+00 
3.00000000e+00 3.66666675e+00 0.00000000e+00 
0.00000000e+00 4.00000000e+00 0.00000000e+00 
1.00000000e+00 4.00000000e+00 0.00000000e+00 
2.00000000e+00 4.00000000e+00 0.00000000e+00 
3.00000000e+00 4.00000000e+00 0.00000000e+00 

        </DataArray>
      </Points>
      <Cells>
        <DataArray type="Int32" Name="connectivity" format="ascii">
0 1 5 4
4 5 9 8
8 9 13 12
1 2 6 5
5 6 10 9
9 10 14 13
2 3 7 6
6 7 11 10
10 11 15 14

        </DataArray>
        <DataArray type="Int32" Name="offsets" format="ascii">
4 8 12 16 20 24 28 32 36 
        </DataArray>
        <DataArray type="UInt8" Name="types" format="ascii">
9 9 9 9 9 9 9 9 9 
        </DataArray>
      </Cells>
      <PointData>
        <DataArray type="Float64" Name="u">
          0.00000000e+00 0.00000000e+00 0.00000000e+00 0.00000000e+00 8.88888889e+01 9.28594367e+01 9.12693527e+01 1.01713985e+02 1.55555556e+02 1.59064823e+02 1.58499716e+02 1.65379702e+02 2.00000000e+02 2.01994268e+02 2.02220641e+02 2.06210837e+02 
        </DataArray>
        <DataArray type="Float64" Name="v">
          0.00000000e+00 0.00000000e+00 0.00000000e+00 0.00000000e+00 0.00000000e+00 -1.04138525e+00 -1.55157664e+00 -4.10860890e+00 0.00000000e+00 -8.72092987e-01 -2.18121415e+00 -4.04859211e+00 0.00000000e+00 -2.17056660e+00 -3.90699680e+00 -6.48683133e+00 
        </DataArray>
        <DataArray type="Float64" Name="p">
          1.33485241e+03 1.51048850e+02 -1.03275471e+03 -2.21655827e+03 1.35159679e+03 1.88861619e+02 -9.73873547e+02 -2.13660871e+03 1.36834116e+03 2.26674388e+02 -9.14992387e+02 -2.05665916e+03 1.38508554e+03 2.64487157e+02 -8.56111226e+02 -1.97670961e+03 
        </DataArray>
      </PointData>
    </Piece>
    <Piece NumberOfPoints="16" NumberOfCells="9">
      <Points>
        <DataArray type="Float64" NumberOfComponents="3" format="ascii">
          0.00000000e+00 4.00000000e+00 0.00000000e+00 
1.00000000e+00 4.00000000e+00 0.00000000e+00 
2.00000000e+00 4.00000000e+00 0.00000000e+00 
3.00000000e+00 4.00000000e+00 0.00000000e+00 
0.00000000e+00 4.33333349e+00 0.00000000e+00 
1.00000000e+00 4.33333349e+00 0.00000000e+00 
2.00000000e+00 4.33333349e+00 0.00000000e+00 
3.00000000e+00 4.33333349e+00 0.00000000e+00 
0.00000000e+00 4.66666651e+00 0.00000000e+00 
1.00000000e+00 4.66666651e+00 0.00000000e+00 
2.00000000e+00 4.66666651e+00 0.00000000e+00 
3.00000000e+00 4.66666651e+00 0.00000000e+00 
0.00000000e+00 5.00000000e+00 0.00000000e+00 
1.00000000e+00 5.00000000e+00 0.00000000e+00 
2.00000000e+00 5.00000000e+00 0.00000000e+00 
3.00000000e+00 5.00000000e+00 0.00000000e+00 

        </DataArray>
      </Points>
      <Cells>
        <DataArray type="Int32" Name="connectivity" format="ascii">
0 1 5 4
4 5 9 8
8 9 13 12
1 2 6 5
5 6 10 9
9 10 14 13
2 3 7 6
6 7 11 10
10 11 15 14

        </DataArray>
        <DataArray type="Int32" Name="offsets" format="ascii">
4 8 12 16 20 24 28 32 36 
        </DataArray>
        <DataArray type="UInt8" Name="types" format="ascii">
9 9 9 9 9 9 9 9 9 
        </DataArray>
      </Cells>
      <PointData>
        <DataArray type="Float64" Name="u">
          2.00000000e+02 2.01994268e+02 2.02220641e+02 2.06210837e+02 2.22222222e+02 2.22748313e+02 2.22909472e+02 2.23936943e+02 2.22222222e+02 2.21127936e+02 2.21193216e+02 2.19269820e+02 2.00000000e+02 1.97502856e+02 1.97729671e+02 1.92829735e+02 
        </DataArray>
        <DataArray type="Float64" Name="v">
          0.00000000e+00 -2.17056660e+00 -3.90699680e+00 -6.48683133e+00 0.00000000e+00 -2.49200668e+00 -4.67890304e+00 -6.49719314e+00 0.00000000e+00 -2.52188517e+00 -4.57778063e+00 -6.66757877e+00 0.00000000e+00 -1.97208161e+00 -3.90522936e+00 -5.53009765e+00 
        </DataArray>
        <DataArray type="Float64" Name="p">
          1.41204698e+03 2.94820515e+02 -8.22405949e+02 -1.93963241e+03 1.60010858e+03 4.68643141e+02 -6.62822296e+02 -1.79428773e+03 1.78817018e+03 6.42465767e+02 -5.03238644e+02 -1.64894306e+03 1.97623178e+03 8.16288394e+02 -3.43654991e+02 -1.50359838e+03 
        </DataArray>
      </PointData>
    </Piece>
    <Piece NumberOfPoints="16" NumberOfCells="9">
      <Points>
        <DataArray type="Float64" NumberOfComponents="3" format="ascii">
          0.00000000e+00 5.00000000e+00 0.00000000e+00 
1.00000000e+00 5.00000000e+00 0.00000000e+00 
2.00000000e+00 5.00000000e+00 0.00000000e+00 
3.00000000e+00 5.00000000e+00 0.00000000e+00 
0.00000000e+00 5.33333349e+00 0.00000000e+00 
1.00000000e+00 5.33333349e+00 0.00000000e+00 
2.00000000e+00 5.33333349e+00 0.00000000e+00 
3.00000000e+00 5.33333349e+00 0.00000000e+00 
0.00000000e+00 5.66666651e+00 0.00000000e+00 
1.00000000e+00 5.66666651e+00 0.00000000e+00 
2.00000000e+00 5.66666651e+00 0.00000000e+00 
3.00000000e+00 5.66666651e+00 0.00000000e+00 
0.00000000e+00 6.00000000e+00 0.00000000e+00 
1.00000000e+00 6.00000000e+00 0.00000000e+00 
2.00000000e+00 6.00000000e+00 0.00000000e+00 
3.00000000e+00 6.00000000e+00 0.00000000e+00 

        </DataArray>
      </Points>
      <Cells>
        <DataArray type="Int32" Name="connectivity" format="ascii">
0 1 5 4
4 5 9 8
8 9 13 12
1 2 6 5
5 6 10 9
9 10 14 13
2 3 7 6
6 7 11 10
10 11 15 14

        </DataArray>
        <DataArray type="Int32" Name="offsets" format="ascii">
4 8 12 16 20 24 28 32 36 
        </DataArray>
        <DataArray type="UInt8" Name="types" format="ascii">
9 9 9 9 9 9 9 9 9 
        </DataArray>
      </Cells>
      <PointData>
        <DataArray type="Float64" Name="u">
          2.00000000e+02 1.97502856e+02 1.97729671e+02 1.92829735e+02 1.55555556e+02 1.52216302e+02 1.52808152e+02 1.45693313e+02 8.88888889e+01 8.57813925e+01 8.65569307e+01 7.79791893e+01 0.00000000e+00 0.00000000e+00 0.00000000e+00 0.00000000e+00 
        </DataArray>
        <DataArray type="Float64" Name="v">
          0.00000000e+00 -1.97208161e+00 -3.90522936e+00 -5.53009765e+00 0.00000000e+00 -7.94388332e-01 -2.06093483e+00 -3.44943198e+00 0.00000000e+00 -7.99990553e-01 -1.79952089e+00 -1.84908508e+00 0.00000000e+00 0.00000000e+00 0.00000000e+00 0.00000000e+00 
        </DataArray>
        <DataArray type="Float64" Name="p">
          1.98565738e+03 8.40725079e+02 -3.04207226e+02 -1.44913953e+03 2.01896673e+03 8.80524864e+02 -2.57917005e+02 -1.39635887e+03 2.05227608e+03 9.20324649e+02 -2.11626783e+02 -1.34357822e+03 2.08558543e+03 9.60124434e+02 -1.65336562e+02 -1.29079756e+03 
        </DataArray>
      </PointData>
    </Piece>
    <Piece NumberOfPoints="16" NumberOfCells="9">
      <Points>
        <DataArray type="Float64" NumberOfComponents="3" format="ascii">
          3.00000000e+00 0.00000000e+00 0.00000000e+00 
4.00000000e+00 0.00000000e+00 0.00000000e+00 
5.00000000e+00 0.00000000e+00 0.00000000e+00 
6.00000000e+00 0.00000000e+00 0.00000000e+00 
3.00000000e+00 3.33333343e-01 0.00000000e+00 
4.00000000e+00 3.33333343e-01 0.00000000e+00 
5.00000000e+00 3.33333343e-01 0.00000000e+00 
6.00000000e+00 3.33333343e-01 0.00000000e+00 
3.00000000e+00 6.66666687e-01 0.00000000e+00 
4.00000000e+00 6.66666687e-01 0.00000000e+00 
5.00000000e+00 6.66666687e-01 0.00000000e+00 
6.00000000e+00 6.66666687e-01 0.00000000e+00 
3.00000000e+00 1.00000000e+00 0.00000000e+00 
4.00000000e+00 1.00000000e+00 0.00000000e+00 
5.00000000e+00 1.00000000e+00 0.00000000e+00 
6.00000000e+00 1.00000000e+00 0.00000000e+00 

        </DataArray>
      </Points>
      <Cells>
        <DataArray type="Int32" Name="connectivity" format="ascii">
0 1 5 4
4 5 9 8
8 9 13 12
1 2 6 5
5 6 10 9
9 10 14 13
2 3 7 6
6 7 11 10
10 11 15 14

        </DataArray>
        <DataArray type="Int32" Name="offsets" format="ascii">
4 8 12 16 20 24 28 32 36 
        </DataArray>
        <DataArray type="UInt8" Name="types" format="ascii">
9 9 9 9 9 9 9 9 9 
        </DataArray>
      </Cells>
      <PointData>
        <DataArray type="Float64" Name="u">
          0.00000000e+00 0.00000000e+00 0.00000000e+00 0.00000000e+00 0.00000000e+00 -3.96229740e+00 -6.52425749e+00 -1.18288467e+01 0.00000000e+00 -6.82252170e+00 -1.15312975e+01 -2.04369162e+01 0.00000000e+00 -8.50367790e+00 -1.42300451e+01 -2.36109585e+01 
        </DataArray>
        <DataArray type="Float64" Name="v">
          0.00000000e+00 0.00000000e+00 0.00000000e+00 0.00000000e+00 0.00000000e+00 9.55452196e-01 1.01443138e+00 8.01420537e-01 0.00000000e+00 2.81153682e+00 2.84147114e+00 1.88410808e+00 0.00000000e+00 6.04884703e+00 6.12347131e+00 3.61912739e+00 
        </DataArray>
        <DataArray type="Float64" Name="p">
          -2.70136760e+03 -2.64374819e+03 -2.58612879e+03 -2.52850939e+03 -2.69018113e+03 -2.63290960e+03 -2.57563808e+03 -2.51836655e+03 -2.67899466e+03 -2.62207101e+03 -2.56514736e+03 -2.50822371e+03 -2.66780819e+03 -2.61123242e+03 -2.55465665e+03 -2.49808087e+03 
        </DataArray>
      </PointData>
    </Piece>
    <Piece NumberOfPoints="16" NumberOfCells="9">
      <Points>
        <DataArray type="Float64" NumberOfComponents="3" format="ascii">
          3.00000000e+00 1.00000000e+00 0.00000000e+00 
4.00000000e+00 1.00000000e+00 0.00000000e+00 
5.00000000e+00 1.00000000e+00 0.00000000e+00 
6.00000000e+00 1.00000000e+00 0.00000000e+00 
3.00000000e+00 1.33333337e+00 0.00000000e+00 
4.00000000e+00 1.33333337e+00 0.00000000e+00 
5.00000000e+00 1.33333337e+00 0.00000000e+00 
6.00000000e+00 1.33333337e+00 0.00000000e+00 
3.00000000e+00 1.66666663e+00 0.00000000e+00 
4.00000000e+00 1.66666663e+00 0.00000000e+00 
5.00000000e+00 1.66666663e+00 0.00000000e+00 
6.00000000e+00 1.66666663e+00 0.00000000e+00 
3.00000000e+00 2.00000000e+00 0.00000000e+00 
4.00000000e+00 2.00000000e+00 0.00000000e+00 
5.00000000e+00 2.00000000e+00 0.00000000e+00 
6.00000000e+00 2.00000000e+00 0.00000000e+00 

        </DataArray>
      </Points>
      <Cells>
        <DataArray type="Int32" Name="connectivity" format="ascii">
0 1 5 4
4 5 9 8
8 9 13 12
1 2 6 5
5 6 10 9
9 10 14 13
2 3 7 6
6 7 11 10
10 11 15 14

        </DataArray>
        <DataArray type="Int32" Name="offsets" format="ascii">
4 8 12 16 20 24 28 32 36 
        </DataArray>
        <DataArray type="UInt8" Name="types" format="ascii">
9 9 9 9 9 9 9 9 9 
        </DataArray>
      </Cells>
      <PointData>
        <DataArray type="Float64" Name="u">
          0.00000000e+00 -8.50367790e+00 -1.42300451e+01 -2.36109585e+01 0.00000000e+00 -8.92120593e+00 -1.38962674e+01 -2.08441600e+01 0.00000000e+00 -7.95099298e+00 -1.01977847e+01 -1.18694958e+01 0.00000000e+00 -5.08753168e+00 -2.60274222e+00 3.64185370e+00 
        </DataArray>
        <DataArray type="Float64" Name="v">
          0.00000000e+00 6.04884703e+00 6.12347131e+00 3.61912739e+00 0.00000000e+00 9.75242170e+00 9.12167783e+00 4.58303639e+00 0.00000000e+00 1.25411724e+01 1.08795725e+01 4.23674856e+00 0.00000000e+00 1.49851319e+01 1.09469236e+01 1.70993996e+00 
        </DataArray>
        <DataArray type="Float64" Name="p">
          -2.65734405e+03 -2.61105842e+03 -2.56477278e+03 -2.51848714e+03 -2.69617677e+03 -2.66229701e+03 -2.62841726e+03 -2.59453751e+03 -2.73500948e+03 -2.71353561e+03 -2.69206174e+03 -2.67058787e+03 -2.77384220e+03 -2.76477421e+03 -2.75570622e+03 -2.74663824e+03 
        </DataArray>
      </PointData>
    </Piece>
    <Piece NumberOfPoints="16" NumberOfCells="9">
      <Points>
        <DataArray type="Float64" NumberOfComponents="3" format="ascii">
          3.00000000e+00 2.00000000e+00 0.00000000e+00 
4.00000000e+00 2.00000000e+00 0.00000000e+00 
5.00000000e+00 2.00000000e+00 0.00000000e+00 
6.00000000e+00 2.00000000e+00 0.00000000e+00 
3.00000000e+00 2.33333325e+00 0.00000000e+00 
4.00000000e+00 2.33333325e+00 0.00000000e+00 
5.00000000e+00 2.33333325e+00 0.00000000e+00 
6.00000000e+00 2.33333325e+00 0.00000000e+00 
3.00000000e+00 2.66666675e+00 0.00000000e+00 
4.00000000e+00 2.66666675e+00 0.00000000e+00 
5.00000000e+00 2.66666675e+00 0.00000000e+00 
6.00000000e+00 2.66666675e+00 0.00000000e+00 
3.00000000e+00 3.00000000e+00 0.00000000e+00 
4.00000000e+00 3.00000000e+00 0.00000000e+00 
5.00000000e+00 3.00000000e+00 0.00000000e+00 
6.00000000e+00 3.00000000e+00 0.00000000e+00 

        </DataArray>
      </Points>
      <Cells>
        <DataArray type="Int32" Name="connectivity" format="ascii">
0 1 5 4
4 5 9 8
8 9 13 12
1 2 6 5
5 6 10 9
9 10 14 13
2 3 7 6
6 7 11 10
10 11 15 14

        </DataArray>
        <DataArray type="Int32" Name="offsets" format="ascii">
4 8 12 16 20 24 28 32 36 
        </DataArray>
        <DataArray type="UInt8" Name="types" format="ascii">
9 9 9 9 9 9 9 9 9 
        </DataArray>
      </Cells>
      <PointData>
        <DataArray type="Float64" Name="u">
          0.00000000e+00 -5.08753168e+00 -2.60274222e+00 3.64185370e+00 0.00000000e+00 1.03123717e+00 9.48846346e+00 2.73013054e+01 0.00000000e+00 1.71249814e+01 3.19732213e+01 5.83531945e+01 0.00000000e+00 5.79072804e+01 7.27792435e+01 9.99941974e+01 
        </DataArray>
        <DataArray type="Float64" Name="v">
          0.00000000e+00 1.49851319e+01 1.09469236e+01 1.70993996e+00 0.00000000e+00 1.56627260e+01 6.99344155e+00 -4.40780242e+00 0.00000000e+00 1.12156404e+01 2.25928277e+00 -8.92786886e+00 0.00000000e+00 -1.53264690e+00 -7.52318606e+00 -1.35262450e+01 
        </DataArray>
        <DataArray type="Float64" Name="p">
          -2.73778124e+03 -2.77413625e+03 -2.81049125e+03 -2.84684626e+03 -2.94739968e+03 -2.85708185e+03 -2.76676403e+03 -2.67644621e+03 -3.15701812e+03 -2.94002746e+03 -2.72303681e+03 -2.50604616e+03 -3.36663655e+03 -3.02297307e+03 -2.67930959e+03 -2.33564610e+03 
        </DataArray>
      </PointData>
    </Piece>
    <Piece NumberOfPoints="16" NumberOfCells="9">
      <Points>
        <DataArray type="Float64" NumberOfComponents="3" format="ascii">
          3.00000000e+00 3.00000000e+00 0.00000000e+00 
4.00000000e+00 3.00000000e+00 0.00000000e+00 
5.00000000e+00 3.00000000e+00 0.00000000e+00 
6.00000000e+00 3.00000000e+00 0.00000000e+00 
3.00000000e+00 3.33333325e+00 0.00000000e+00 
4.00000000e+00 3.33333325e+00 0.00000000e+00 
5.00000000e+00 3.33333325e+00 0.00000000e+00 
6.00000000e+00 3.33333325e+00 0.00000000e+00 
3.00000000e+00 3.66666675e+00 0.00000000e+00 
4.00000000e+00 3.66666675e+00 0.00000000e+00 
5.00000000e+00 3.66666675e+00 0.00000000e+00 
6.00000000e+00 3.66666675e+00 0.00000000e+00 
3.00000000e+00 4.00000000e+00 0.00000000e+00 
4.00000000e+00 4.00000000e+00 0.00000000e+00 
5.00000000e+00 4.00000000e+00 0.00000000e+00 
6.00000000e+00 4.00000000e+00 0.00000000e+00 

        </DataArray>
      </Points>
      <Cells>
        <DataArray type="Int32" Name="connectivity" format="ascii">
0 1 5 4
4 5 9 8
8 9 13 12
1 2 6 5
5 6 10 9
9 10 14 13
2 3 7 6
6 7 11 10
10 11 15 14

        </DataArray>
        <DataArray type="Int32" Name="offsets" format="ascii">
4 8 12 16 20 24 28 32 36 
        </DataArray>
        <DataArray type="UInt8" Name="types" format="ascii">
9 9 9 9 9 9 9 9 9 
        </DataArray>
      </Cells>
      <PointData>
        <DataArray type="Float64" Name="u">
          0.00000000e+00 5.79072804e+01 7.27792435e+01 9.99941974e+01 1.01713985e+02 1.12352907e+02 1.26855035e+02 1.41401515e+02 1.65379702e+02 1.66319333e+02 1.73949597e+02 1.79080082e+02 2.06210837e+02 2.01799416e+02 2.05303099e+02 2.01689007e+02 
        </DataArray>
        <DataArray type="Float64" Name="v">
          0.00000000e+00 -1.53264690e+00 -7.52318606e+00 -1.35262450e+01 -4.10860890e+00 -1.30464357e+01 -1.57894694e+01 -1.64282157e+01 -4.04859211e+00 -1.32105616e+01 -1.73867042e+01 -1.85687934e+01 -6.48683133e+00 -1.40361948e+01 -1.84245694e+01 -2.20366518e+01 
        </DataArray>
        <DataArray type="Float64" Name="p">
          -3.52207159e+03 -3.09706362e+03 -2.67205565e+03 -2.24704768e+03 -2.97172694e+03 -2.75185270e+03 -2.53197845e+03 -2.31210420e+03 -2.42138230e+03 -2.40664177e+03 -2.39190124e+03 -2.37716071e+03 -1.87103765e+03 -2.06143084e+03 -2.25182403e+03 -2.44221723e+03 
        </DataArray>
      </PointData>
    </Piece>
    <Piece NumberOfPoints="16" NumberOfCells="9">
      <Points>
        <DataArray type="Float64" NumberOfComponents="3" format="ascii">
          3.00000000e+00 4.00000000e+00 0.00000000e+00 
4.00000000e+00 4.00000000e+00 0.00000000e+00 
5.00000000e+00 4.00000000e+00 0.00000000e+00 
6.00000000e+00 4.00000000e+00 0.00000000e+00 
3.00000000e+00 4.33333349e+00 0.00000000e+00 
4.00000000e+00 4.33333349e+00 0.00000000e+00 
5.00000000e+00 4.33333349e+00 0.00000000e+00 
6.00000000e+00 4.33333349e+00 0.00000000e+00 
3.00000000e+00 4.66666651e+00 0.00000000e+00 
4.00000000e+00 4.66666651e+00 0.00000000e+00 
5.00000000e+00 4.66666651e+00 0.00000000e+00 
6.00000000e+00 4.66666651e+00 0.00000000e+00 
3.00000000e+00 5.00000000e+00 0.00000000e+00 
4.00000000e+00 5.00000000e+00 0.00000000e+00 
5.00000000e+00 5.00000000e+00 0.00000000e+00 
6.00000000e+00 5.00000000e+00 0.00000000e+00 

        </DataArray>
      </Points>
      <Cells>
        <DataArray type="Int32" Name="connectivity" format="ascii">
0 1 5 4
4 5 9 8
8 9 13 12
1 2 6 5
5 6 10 9
9 10 14 13
2 3 7 6
6 7 11 10
10 11 15 14

        </DataArray>
        <DataArray type="Int32" Name="offsets" format="ascii">
4 8 12 16 20 24 28 32 36 
        </DataArray>
        <DataArray type="UInt8" Name="types" format="ascii">
9 9 9 9 9 9 9 9 9 
        </DataArray>
      </Cells>
      <PointData>
        <DataArray type="Float64" Name="u">
          2.06210837e+02 2.01799416e+02 2.05303099e+02 2.01689007e+02 2.23936943e+02 2.16994696e+02 2.15103771e+02 2.06475386e+02 2.19269820e+02 2.10011612e+02 2.04407984e+02 1.91342262e+02 1.92829735e+02 1.82717292e+02 1.74882113e+02 1.59857302e+02 
        </DataArray>
        <DataArray type="Float64" Name="v">
          -6.48683133e+00 -1.40361948e+01 -1.84245694e+01 -2.20366518e+01 -6.49719314e+00 -1.12304190e+01 -1.64736437e+01 -2.13729857e+01 -6.66757877e+00 -1.06172088e+01 -1.43472650e+01 -1.90265715e+01 -5.53009765e+00 -5.91716012e+00 -9.86890120e+00 -1.51302916e+01 
        </DataArray>
        <DataArray type="Float64" Name="p">
          -1.70540225e+03 -1.93586666e+03 -2.16633107e+03 -2.39679548e+03 -1.39149417e+03 -1.59161626e+03 -1.79173835e+03 -1.99186044e+03 -1.07758610e+03 -1.24736586e+03 -1.41714563e+03 -1.58692540e+03 -7.63678019e+02 -9.03115463e+02 -1.04255291e+03 -1.18199035e+03 
        </DataArray>
      </PointData>
    </Piece>
    <Piece NumberOfPoints="16" NumberOfCells="9">
      <Points>
        <DataArray type="Float64" NumberOfComponents="3" format="ascii">
          3.00000000e+00 5.00000000e+00 0.00000000e+00 
4.00000000e+00 5.00000000e+00 0.00000000e+00 
5.00000000e+00 5.00000000e+00 0.00000000e+00 
6.00000000e+00 5.00000000e+00 0.00000000e+00 
3.00000000e+00 5.33333349e+00 0.00000000e+00 
4.00000000e+00 5.33333349e+00 0.00000000e+00 
5.00000000e+00 5.33333349e+00 0.00000000e+00 
6.00000000e+00 5.33333349e+00 0.00000000e+00 
3.00000000e+00 5.66666651e+00 0.00000000e+00 
4.00000000e+00 5.66666651e+00 0.00000000e+00 
5.00000000e+00 5.66666651e+00 0.00000000e+00 
6.00000000e+00 5.66666651e+00 0.00000000e+00 
3.00000000e+00 6.00000000e+00 0.00000000e+00 
4.00000000e+00 6.00000000e+00 0.00000000e+00 
5.00000000e+00 6.00000000e+00 0.00000000e+00 
6.00000000e+00 6.00000000e+00 0.00000000e+00 

        </DataArray>
      </Points>
      <Cells>
        <DataArray type="Int32" Name="connectivity" format="ascii">
0 1 5 4
4 5 9 8
8 9 13 12
1 2 6 5
5 6 10 9
9 10 14 13
2 3 7 6
6 7 11 10
10 11 15 14

        </DataArray>
        <DataArray type="Int32" Name="offsets" format="ascii">
4 8 12 16 20 24 28 32 36 
        </DataArray>
        <DataArray type="UInt8" Name="types" format="ascii">
9 9 9 9 9 9 9 9 9 
        </DataArray>
      </Cells>
      <PointData>
        <DataArray type="Float64" Name="u">
          1.92829735e+02 1.82717292e+02 1.74882113e+02 1.59857302e+02 1.45693313e+02 1.36507863e+02 1.29086247e+02 1.16862963e+02 7.79791893e+01 7.99899132e+01 7.71377456e+01 7.34327570e+01 0.00000000e+00 3.54653864e+01 3.48393267e+01 4.26771431e+01 
        </DataArray>
        <DataArray type="Float64" Name="v">
          -5.53009765e+00 -5.91716012e+00 -9.86890120e+00 -1.51302916e+01 -3.44943198e+00 -1.61507542e+00 -4.39509350e+00 -1.00346902e+01 -1.84908508e+00 -1.62599808e+00 -5.17388097e+00 -8.04862362e+00 0.00000000e+00 -6.58585649e+00 -4.94921235e+00 -3.27148757e+00 
        </DataArray>
        <DataArray type="Float64" Name="p">
          -8.50571443e+02 -9.07297125e+02 -9.64022808e+02 -1.02074849e+03 -1.00949177e+03 -9.39855855e+02 -8.70219939e+02 -8.00584023e+02 -1.16841210e+03 -9.72414586e+02 -7.76417071e+02 -5.80419557e+02 -1.32733243e+03 -1.00497332e+03 -6.82614203e+02 -3.60255090e+02 
        </DataArray>
      </PointData>
    </Piece>
    <Piece NumberOfPoints="16" NumberOfCells="9">
      <Points>
        <DataArray type="Float64" NumberOfComponents="3" format="ascii">
          3.00000000e+00 6.00000000e+00 0.00000000e+00 
4.00000000e+00 6.00000000e+00 0.00000000e+00 
5.00000000e+00 6.00000000e+00 0.00000000e+00 
6.00000000e+00 6.00000000e+00 0.00000000e+00 
3.00000000e+00 6.33333349e+00 0.00000000e+00 
4.00000000e+00 6.33333349e+00 0.00000000e+00 
5.00000000e+00 6.33333349e+00 0.00000000e+00 
6.00000000e+00 6.33333349e+00 0.00000000e+00 
3.00000000e+00 6.66666651e+00 0.00000000e+00 
4.00000000e+00 6.66666651e+00 0.00000000e+00 
5.00000000e+00 6.66666651e+00 0.00000000e+00 
6.00000000e+00 6.66666651e+00 0.00000000e+00 
3.00000000e+00 7.00000000e+00 0.00000000e+00 
4.00000000e+00 7.00000000e+00 0.00000000e+00 
5.00000000e+00 7.00000000e+00 0.00000000e+00 
6.00000000e+00 7.00000000e+00 0.00000000e+00 

        </DataArray>
      </Points>
      <Cells>
        <DataArray type="Int32" Name="connectivity" format="ascii">
0 1 5 4
4 5 9 8
8 9 13 12
1 2 6 5
5 6 10 9
9 10 14 13
2 3 7 6
6 7 11 10
10 11 15 14

        </DataArray>
        <DataArray type="Int32" Name="offsets" format="ascii">
4 8 12 16 20 24 28 32 36 
        </DataArray>
        <DataArray type="UInt8" Name="types" format="ascii">
9 9 9 9 9 9 9 9 9 
        </DataArray>
      </Cells>
      <PointData>
        <DataArray type="Float64" Name="u">
          0.00000000e+00 3.54653864e+01 3.48393267e+01 4.26771431e+01 0.00000000e+00 7.70252875e+00 1.09249017e+01 1.72212230e+01 0.00000000e+00 -2.58888997e+00 -1.43311153e+00 4.98849465e-01 0.00000000e+00 -6.20142557e+00 -7.67736716e+00 -1.01545091e+01 
        </DataArray>
        <DataArray type="Float64" Name="v">
          0.00000000e+00 -6.58585649e+00 -4.94921235e+00 -3.27148757e+00 0.00000000e+00 -1.29453778e+01 -7.77405808e+00 -2.71555671e+00 0.00000000e+00 -1.41905005e+01 -8.08879754e+00 -3.19968417e+00 0.00000000e+00 -1.23884812e+01 -8.38430519e+00 -4.11928544e+00 
        </DataArray>
        <DataArray type="Float64" Name="p">
          -1.30088737e+03 -1.05313019e+03 -8.05373018e+02 -5.57615844e+02 -1.14835061e+03 -9.74083273e+02 -7.99815934e+02 -6.25548594e+02 -9.95813858e+02 -8.95036353e+02 -7.94258849e+02 -6.93481344e+02 -8.43277103e+02 -8.15989434e+02 -7.88701764e+02 -7.61414094e+02 
        </DataArray>
      </PointData>
    </Piece>
    <Piece NumberOfPoints="16" NumberOfCells="9">
      <Points>
        <DataArray type="Float64" NumberOfComponents="3" format="ascii">
          3.00000000e+00 7.00000000e+00 0.00000000e+00 
4.00000000e+00 7.00000000e+00 0.00000000e+00 
5.00000000e+00 7.00000000e+00 0.00000000e+00 
6.00000000e+00 7.00000000e+00 0.00000000e+00 
3.00000000e+00 7.33333349e+00 0.00000000e+00 
4.00000000e+00 7.33333349e+00 0.00000000e+00 
5.00000000e+00 7.33333349e+00 0.00000000e+00 
6.00000000e+00 7.33333349e+00 0.00000000e+00 
3.00000000e+00 7.66666651e+00 0.00000000e+00 
4.00000000e+00 7.66666651e+00 0.00000000e+00 
5.00000000e+00 7.66666651e+00 0.00000000e+00 
6.00000000e+00 7.66666651e+00 0.00000000e+00 
3.00000000e+00 8.00000000e+00 0.00000000e+00 
4.00000000e+00 8.00000000e+00 0.00000000e+00 
5.00000000e+00 8.00000000e+00 0.00000000e+00 
6.00000000e+00 8.00000000e+00 0.00000000e+00 

        </DataArray>
      </Points>
      <Cells>
        <DataArray type="Int32" Name="connectivity" format="ascii">
0 1 5 4
4 5 9 8
8 9 13 12
1 2 6 5
5 6 10 9
9 10 14 13
2 3 7 6
6 7 11 10
10 11 15 14

        </DataArray>
        <DataArray type="Int32" Name="offsets" format="ascii">
4 8 12 16 20 24 28 32 36 
        </DataArray>
        <DataArray type="UInt8" Name="types" format="ascii">
9 9 9 9 9 9 9 9 9 
        </DataArray>
      </Cells>
      <PointData>
        <DataArray type="Float64" Name="u">
          0.00000000e+00 -6.20142557e+00 -7.67736716e+00 -1.01545091e+01 0.00000000e+00 -7.35850569e+00 -1.07934759e+01 -1.54261891e+01 0.00000000e+00 -7.19988942e+00 -1.14723939e+01 -1.71226418e+01 0.00000000e+00 -6.24520088e+00 -1.03474513e+01 -1.59879350e+01 
        </DataArray>
        <DataArray type="Float64" Name="v">
          0.00000000e+00 -1.23884812e+01 -8.38430519e+00 -4.11928544e+00 0.00000000e+00 -9.63005305e+00 -7.01712351e+00 -3.87861249e+00 0.00000000e+00 -7.17007858e+00 -5.45208994e+00 -3.18408952e+00 0.00000000e+00 -4.24515095e+00 -3.44674863e+00 -2.09896696e+00 
        </DataArray>
        <DataArray type="Float64" Name="p">
          -8.55905629e+02 -8.07362243e+02 -7.58818858e+02 -7.10275472e+02 -8.12534873e+02 -7.71338708e+02 -7.30142544e+02 -6.88946379e+02 -7.69164118e+02 -7.35315173e+02 -7.01466229e+02 -6.67617285e+02 -7.25793362e+02 -6.99291638e+02 -6.72789915e+02 -6.46288191e+02 
        </DataArray>
      </PointData>
    </Piece>
    <Piece NumberOfPoints="16" NumberOfCells="9">
      <Points>
        <DataArray type="Float64" NumberOfComponents="3" format="ascii">
          3.00000000e+00 8.00000000e+00 0.00000000e+00 
4.00000000e+00 8.00000000e+00 0.00000000e+00 
5.00000000e+00 8.00000000e+00 0.00000000e+00 
6.00000000e+00 8.00000000e+00 0.00000000e+00 
3.00000000e+00 8.33333302e+00 0.00000000e+00 
4.00000000e+00 8.33333302e+00 0.00000000e+00 
5.00000000e+00 8.33333302e+00 0.00000000e+00 
6.00000000e+00 8.33333302e+00 0.00000000e+00 
3.00000000e+00 8.66666698e+00 0.00000000e+00 
4.00000000e+00 8.66666698e+00 0.00000000e+00 
5.00000000e+00 8.66666698e+00 0.00000000e+00 
6.00000000e+00 8.66666698e+00 0.00000000e+00 
3.00000000e+00 9.00000000e+00 0.00000000e+00 
4.00000000e+00 9.00000000e+00 0.00000000e+00 
5.00000000e+00 9.00000000e+00 0.00000000e+00 
6.00000000e+00 9.00000000e+00 0.00000000e+00 

        </DataArray>
      </Points>
      <Cells>
        <DataArray type="Int32" Name="connectivity" format="ascii">
0 1 5 4
4 5 9 8
8 9 13 12
1 2 6 5
5 6 10 9
9 10 14 13
2 3 7 6
6 7 11 10
10 11 15 14

        </DataArray>
        <DataArray type="Int32" Name="offsets" format="ascii">
4 8 12 16 20 24 28 32 36 
        </DataArray>
        <DataArray type="UInt8" Name="types" format="ascii">
9 9 9 9 9 9 9 9 9 
        </DataArray>
      </Cells>
      <PointData>
        <DataArray type="Float64" Name="u">
          0.00000000e+00 -6.24520088e+00 -1.03474513e+01 -1.59879350e+01 0.00000000e+00 -4.72119185e+00 -7.84764042e+00 -1.26176067e+01 0.00000000e+00 -2.65154454e+00 -4.28724714e+00 -7.22774738e+00 0.00000000e+00 0.00000000e+00 0.00000000e+00 0.00000000e+00 
        </DataArray>
        <DataArray type="Float64" Name="v">
          0.00000000e+00 -4.24515095e+00 -3.44674863e+00 -2.09896696e+00 0.00000000e+00 -1.92178583e+00 -1.65567104e+00 -9.72353698e-01 0.00000000e+00 -6.25486923e-01 -5.81626639e-01 -3.25830762e-01 0.00000000e+00 0.00000000e+00 0.00000000e+00 0.00000000e+00 
        </DataArray>
        <DataArray type="Float64" Name="p">
          -7.33387099e+02 -7.03650040e+02 -6.73912981e+02 -6.44175922e+02 -7.42188196e+02 -7.11642105e+02 -6.81096015e+02 -6.50549925e+02 -7.50989292e+02 -7.19634171e+02 -6.88279049e+02 -6.56923927e+02 -7.59790389e+02 -7.27626236e+02 -6.95462083e+02 -6.63297929e+02 
        </DataArray>
      </PointData>
    </Piece>
    <Piece NumberOfPoints="16" NumberOfCells="9">
      <Points>
        <DataArray type="Float64" NumberOfComponents="3" format="ascii">
          6.00000000e+00 0.00000000e+00 0.00000000e+00 
7.00000000e+00 0.00000000e+00 0.00000000e+00 
8.00000000e+00 0.00000000e+00 0.00000000e+00 
9.00000000e+00 0.00000000e+00 0.00000000e+00 
6.00000000e+00 3.33333343e-01 0.00000000e+00 
7.00000000e+00 3.33333343e-01 0.00000000e+00 
8.00000000e+00 3.33333343e-01 0.00000000e+00 
9.00000000e+00 3.33333343e-01 0.00000000e+00 
6.00000000e+00 6.66666687e-01 0.00000000e+00 
7.00000000e+00 6.66666687e-01 0.00000000e+00 
8.00000000e+00 6.66666687e-01 0.00000000e+00 
9.00000000e+00 6.66666687e-01 0.00000000e+00 
6.00000000e+00 1.00000000e+00 0.00000000e+00 
7.00000000e+00 1.00000000e+00 0.00000000e+00 
8.00000000e+00 1.00000000e+00 0.00000000e+00 
9.00000000e+00 1.00000000e+00 0.00000000e+00 

        </DataArray>
      </Points>
      <Cells>
        <DataArray type="Int32" Name="connectivity" format="ascii">
0 1 5 4
4 5 9 8
8 9 13 12
1 2 6 5
5 6 10 9
9 10 14 13
2 3 7 6
6 7 11 10
10 11 15 14

        </DataArray>
        <DataArray type="Int32" Name="offsets" format="ascii">
4 8 12 16 20 24 28 32 36 
        </DataArray>
        <DataArray type="UInt8" Name="types" format="ascii">
9 9 9 9 9 9 9 9 9 
        </DataArray>
      </Cells>
      <PointData>
        <DataArray type="Float64" Name="u">