<?xml version="1.0"?>
<VTKFile type="UnstructuredGrid" version="0.1" byte_order="LittleEndian">
  <UnstructuredGrid>
    <Piece NumberOfPoints="16" NumberOfCells="9">
      <Points>
        <DataArray type="Float64" NumberOfComponents="3" format="ascii">
          0.00000000e+00 3.00000000e+00 0.00000000e+00 
1.00000000e+00 3.00000000e+00 0.00000000e+00 
2.00000000e+00 3.00000000e+00 0.00000000e+00 
3.00000000e+00 3.00000000e+00 0.00000000e+00 
0.00000000e+00 3.33333325e+00 0.00000000e+00 
1.00000000e+00 3.33333325e+00 0.00000000e+00 
2.00000000e+00 3.33333325e+00 0.00000000e+00 
3.00000000e+00 3.33333325e+00 0.00000000e+00 
0.00000000e+00 3.66666675e+00 0.00000000e+00 
1.00000000e+00 3.66666675e+00 0.00000000e+00 
2.00000000e+00 3.66666675e+00 0.00000000e+00 
3.00000000e+00 3.66666675e+00 0.00000000e+00 
0.00000000e+00 4.00000000e+00 0.00000000e+00 
1.00000000e+00 4.00000000e+00 0.00000000e+00 
2.00000000e+00 4.00000000e+00 0.00000000e+00 
3.00000000e+00 4.00000000e+00 0.00000000e+00 

        </DataArray>
      </Points>
      <Cells>
        <DataArray type="Int32" Name="connectivity" format="ascii">
0 1 5 4
4 5 9 8
8 9 13 12
1 2 6 5
5 6 10 9
9 10 14 13
2 3 7 6
6 7 11 10
10 11 15 14

        </DataArray>
        <DataArray type="Int32" Name="offsets" format="ascii">
4 8 12 16 20 24 28 32 36 
        </DataArray>
        <DataArray type="UInt8" Name="types" format="ascii">
9 9 9 9 9 9 9 9 9 
        </DataArray>
      </Cells>
      <PointData>
        <DataArray type="Float64" Name="u">
          0.00000000e+00 0.00000000e+00 0.00000000e+00 0.00000000e+00 8.88888889e+01 9.36610122e+01 9.16567549e+01 1.03471238e+02 1.55555556e+02 1.59536863e+02 1.58729966e+02 1.66204373e+02 2.00000000e+02 2.02307210e+02 2.02280606e+02 2.06961746e+02 
        </DataArray>
        <DataArray type="Float64" Name="v">
          0.00000000e+00 0.00000000e+00 0.00000000e+00 0.00000000e+00 0.00000000e+00 -1.29605243e+00 -1.92422922e+00 -4.31295564e+00 0.00000000e+00 -9.70580224e-01 -2.41945732e+00 -4.28564780e+00 0.00000000e+00 -2.48937160e+00 -4.38013156e+00 -6.94323936e+00 
        </DataArray>
        <DataArray type="Float64" Name="p">
          -3.86848594e+02 -1.31444797e+03 -2.24204734e+03 -3.16964672e+03 -3.59040132e+02 -1.26940224e+03 -2.17976434e+03 -3.09012644e+03 -3.31231671e+02 -1.22435650e+03 -2.11748133e+03 -3.01060616e+03 -3.03423209e+02 -1.17931077e+03 -2.05519833e+03 -2.93108588e+03 
        </DataArray>
      </PointData>
    </Piece>
    <Piece NumberOfPoints="16" NumberOfCells="9">
      <Points>
        <DataArray type="Float64" NumberOfComponents="3" format="ascii">
          0.00000000e+00 4.00000000e+00 0.00000000e+00 
1.00000000e+00 4.00000000e+00 0.00000000e+00 
2.00000000e+00 4.00000000e+00 0.00000000e+00 
3.00000000e+00 4.00000000e+00 0.00000000e+00 
0.00000000e+00 4.33333349e+00 0.00000000e+00 
1.00000000e+00 4.33333349e+00 0.00000000e+00 
2.00000000e+00 4.33333349e+00 0.00000000e+00 
3.00000000e+00 4.33333349e+00 0.00000000e+00 
0.00000000e+00 4.66666651e+00 0.00000000e+00 
1.00000000e+00 4.66666651e+00 0.00000000e+00 
2.00000000e+00 4.66666651e+00 0.00000000e+00 
3.00000000e+00 4.66666651e+00 0.00000000e+00 
0.00000000e+00 5.00000000e+00 0.00000000e+00 
1.00000000e+00 5.00000000e+00 0.00000000e+00 
2.00000000e+00 5.00000000e+00 0.00000000e+00 
3.00000000e+00 5.00000000e+00 0.00000000e+00 

        </DataArray>
      </Points>
      <Cells>
        <DataArray type="Int32" Name="connectivity" format="ascii">
0 1 5 4
4 5 9 8
8 9 13 12
1 2 6 5
5 6 10 9
9 10 14 13
2 3 7 6
6 7 11 10
10 11 15 14

        </DataArray>
        <DataArray type="Int32" Name="offsets" format="ascii">
4 8 12 16 20 24 28 32 36 
        </DataArray>
        <DataArray type="UInt8" Name="types" format="ascii">
9 9 9 9 9 9 9 9 9 
        </DataArray>
      </Cells>
      <PointData>
        <DataArray type="Float64" Name="u">
          2.00000000e+02 2.02307210e+02 2.02280606e+02 2.06961746e+02 2.22222222e+02 2.22989264e+02 2.22931429e+02 2.24211113e+02 2.22222222e+02 2.21247018e+02 2.21067488e+02 2.19222464e+02 2.00000000e+02 1.97502614e+02 1.97450862e+02 1.92370542e+02 
        </DataArray>
        <DataArray type="Float64" Name="v">
          0.00000000e+00 -2.48937160e+00 -4.38013156e+00 -6.94323936e+00 0.00000000e+00 -2.87076954e+00 -5.22281235e+00 -7.05147021e+00 0.00000000e+00 -2.89413672e+00 -5.14734625e+00 -7.15996468e+00 0.00000000e+00 -2.34041689e+00 -4.40871149e+00 -6.07092525e+00 
        </DataArray>
        <DataArray type="Float64" Name="p">
          -2.77051012e+02 -1.14950444e+03 -2.02195788e+03 -2.89441131e+03 -5.42178715e+01 -9.56073692e+02 -1.85792951e+03 -2.75978533e+03 1.68615269e+02 -7.62642941e+02 -1.69390115e+03 -2.62515936e+03 3.91448410e+02 -5.69212189e+02 -1.52987279e+03 -2.49053339e+03 
        </DataArray>
      </PointData>
    </Piece>
    <Piece NumberOfPoints="16" NumberOfCells="9">
      <Points>
        <DataArray type="Float64" NumberOfComponents="3" format="ascii">
          0.00000000e+00 5.00000000e+00 0.00000000e+00 
1.00000000e+00 5.00000000e+00 0.00000000e+00 
2.00000000e+00 5.00000000e+00 0.00000000e+00 
3.00000000e+00 5.00000000e+00 0.00000000e+00 
0.00000000e+00 5.33333349e+00 0.00000000e+00 
1.00000000e+00 5.33333349e+00 0.00000000e+00 
2.00000000e+00 5.33333349e+00 0.00000000e+00 
3.00000000e+00 5.33333349e+00 0.00000000e+00 
0.00000000e+00 5.66666651e+00 0.00000000e+00 
1.00000000e+00 5.66666651e+00 0.00000000e+00 
2.00000000e+00 5.66666651e+00 0.00000000e+00 
3.00000000e+00 5.66666651e+00 0.00000000e+00 
0.00000000e+00 6.00000000e+00 0.00000000e+00 
1.00000000e+00 6.00000000e+00 0.00000000e+00 
2.00000000e+00 6.00000000e+00 0.00000000e+00 
3.00000000e+00 6.00000000e+00 0.00000000e+00 

        </DataArray>
      </Points>
      <Cells>
        <DataArray type="Int32" Name="connectivity" format="ascii">
0 1 5 4
4 5 9 8
8 9 13 12
1 2 6 5
5 6 10 9
9 10 14 13
2 3 7 6
6 7 11 10
10 11 15 14

        </DataArray>
        <DataArray type="Int32" Name="offsets" format="ascii">
4 8 12 16 20 24 28 32 36 
        </DataArray>
        <DataArray type="UInt8" Name="types" format="ascii">
9 9 9 9 9 9 9 9 9 
        </DataArray>
      </Cells>
      <PointData>
        <DataArray type="Float64" Name="u">
          2.00000000e+02 1.97502614e+02 1.97450862e+02 1.92370542e+02 1.55555556e+02 1.51892450e+02 1.52303201e+02 1.44747927e+02 8.88888889e+01 8.50385757e+01 8.59184484e+01 7.59213595e+01 0.00000000e+00 0.00000000e+00 0.00000000e+00 0.00000000e+00 
        </DataArray>
        <DataArray type="Float64" Name="v">
          0.00000000e+00 -2.34041689e+00 -4.40871149e+00 -6.07092525e+00 0.00000000e+00 -9.42700978e-01 -2.30081196e+00 -3.82560848e+00 0.00000000e+00 -1.07621767e+00 -2.12845005e+00 -2.38944264e+00 0.00000000e+00 0.00000000e+00 0.00000000e+00 0.00000000e+00 
        </DataArray>
        <DataArray type="Float64" Name="p">
          4.06223743e+02 -5.41437713e+02 -1.48909917e+03 -2.43676063e+03 4.47006845e+02 -4.95536692e+02 -1.43808023e+03 -2.38062377e+03 4.87789947e+02 -4.49635672e+02 -1.38706129e+03 -2.32448691e+03 5.28573049e+02 -4.03734651e+02 -1.33604235e+03 -2.26835005e+03 
        </DataArray>
      </PointData>
    </Piece>
    <Piece NumberOfPoints="16" NumberOfCells="9">
      <Points>
        <DataArray type="Float64" NumberOfComponents="3" format="ascii">
          3.00000000e+00 0.00000000e+00 0.00000000e+00 
4.00000000e+00 0.00000000e+00 0.00000000e+00 
5.00000000e+00 0.00000000e+00 0.00000000e+00 
6.00000000e+00 0.00000000e+00 0.00000000e+00 
3.00000000e+00 3.33333343e-01 0.00000000e+00 
4.00000000e+00 3.33333343e-01 0.00000000e+00 
5.00000000e+00 3.33333343e-01 0.00000000e+00 
6.00000000e+00 3.33333343e-01 0.00000000e+00 
3.00000000e+00 6.66666687e-01 0.00000000e+00 
4.00000000e+00 6.66666687e-01 0.00000000e+00 
5.00000000e+00 6.66666687e-01 0.00000000e+00 
6.00000000e+00 6.66666687e-01 0.00000000e+00 
3.00000000e+00 1.00000000e+00 0.00000000e+00 
4.00000000e+00 1.00000000e+00 0.00000000e+00 
5.00000000e+00 1.00000000e+00 0.00000000e+00 
6.00000000e+00 1.00000000e+00 0.00000000e+00 

        </DataArray>
      </Points>
      <Cells>
        <DataArray type="Int32" Name="connectivity" format="ascii">
0 1 5 4
4 5 9 8
8 9 13 12
1 2 6 5
5 6 10 9
9 10 14 13
2 3 7 6
6 7 11 10
10 11 15 14

        </DataArray>
        <DataArray type="Int32" Name="offsets" format="ascii">
4 8 12 16 20 24 28 32 36 
        </DataArray>
        <DataArray type="UInt8" Name="types" format="ascii">
9 9 9 9 9 9 9 9 9 
        </DataArray>
      </Cells>
      <PointData>
        <DataArray type="Float64" Name="u">
          0.00000000e+00 0.00000000e+00 0.00000000e+00 0.00000000e+00 0.00000000e+00 -3.27075147e+00 -5.86633566e+00 -1.01739940e+01 0.00000000e+00 -5.80656284e+00 -1.05979697e+01 -1.85533868e+01 0.00000000e+00 -7.41643005e+00 -1.34315090e+01 -2.22633999e+01 
        </DataArray>
        <DataArray type="Float64" Name="v">
          0.00000000e+00 0.00000000e+00 0.00000000e+00 0.00000000e+00 0.00000000e+00 8.31354717e-01 8.23547101e-01 6.80549128e-01 0.00000000e+00 2.47681671e+00 2.44912963e+00 1.76568705e+00 0.00000000e+00 5.38905334e+00 5.52377729e+00 3.41002221e+00 
        </DataArray>
        <DataArray type="Float64" Name="p">
          -3.76312700e+03 -3.73437794e+03 -3.70562889e+03 -3.67687983e+03 -3.75609718e+03 -3.72643273e+03 -3.69676828e+03 -3.66710383e+03 -3.74906736e+03 -3.71848751e+03 -3.68790767e+03 -3.65732783e+03 -3.74203753e+03 -3.71054230e+03 -3.67904706e+03 -3.64755182e+03 
        </DataArray>
      </PointData>
    </Piece>
    <Piece NumberOfPoints="16" NumberOfCells="9">
      <Points>
        <DataArray type="Float64" NumberOfComponents="3" format="ascii">
          3.00000000e+00 1.00000000e+00 0.00000000e+00 
4.00000000e+00 1.00000000e+00 0.00000000e+00 
5.00000000e+00 1.00000000e+00 0.00000000e+00 
6.00000000e+00 1.00000000e+00 0.00000000e+00 
3.00000000e+00 1.33333337e+00 0.00000000e+00 
4.00000000e+00 1.33333337e+00 0.00000000e+00 
5.00000000e+00 1.33333337e+00 0.00000000e+00 
6.00000000e+00 1.33333337e+00 0.00000000e+00 
3.00000000e+00 1.66666663e+00 0.00000000e+00 
4.00000000e+00 1.66666663e+00 0.00000000e+00 
5.00000000e+00 1.66666663e+00 0.00000000e+00 
6.00000000e+00 1.66666663e+00 0.00000000e+00 
3.00000000e+00 2.00000000e+00 0.00000000e+00 
4.00000000e+00 2.00000000e+00 0.00000000e+00 
5.00000000e+00 2.00000000e+00 0.00000000e+00 
6.00000000e+00 2.00000000e+00 0.00000000e+00 

        </DataArray>
      </Points>
      <Cells>
        <DataArray type="Int32" Name="connectivity" format="ascii">
0 1 5 4
4 5 9 8
8 9 13 12
1 2 6 5
5 6 10 9
9 10 14 13
2 3 7 6
6 7 11 10
10 11 15 14

        </DataArray>
        <DataArray type="Int32" Name="offsets" format="ascii">
4 8 12 16 20 24 28 32 36 
        </DataArray>
        <DataArray type="UInt8" Name="types" format="ascii">
9 9 9 9 9 9 9 9 9 
        </DataArray>
      </Cells>
      <PointData>
        <DataArray type="Float64" Name="u">
          0.00000000e+00 -7.41643005e+00 -1.34315090e+01 -2.22633999e+01 0.00000000e+00 -7.94749136e+00 -1.35351648e+01 -2.03802163e+01 0.00000000e+00 -7.27223678e+00 -1.04581848e+01 -1.25426210e+01 0.00000000e+00 -4.94509280e+00 -3.58436925e+00 1.76126195e+00 
        </DataArray>
        <DataArray type="Float64" Name="v">
          0.00000000e+00 5.38905334e+00 5.52377729e+00 3.41002221e+00 0.00000000e+00 8.82894390e+00 8.42580783e+00 4.69621821e+00 0.00000000e+00 1.14694860e+01 1.02161699e+01 4.63680662e+00 0.00000000e+00 1.39119785e+01 1.05233850e+01 2.59930667e+00 
        </DataArray>
        <DataArray type="Float64" Name="p">
          -3.73340080e+03 -3.70959993e+03 -3.68579905e+03 -3.66199818e+03 -3.76152318e+03 -3.74925836e+03 -3.73699353e+03 -3.72472871e+03 -3.78964557e+03 -3.78891679e+03 -3.78818801e+03 -3.78745924e+03 -3.81776795e+03 -3.82857522e+03 -3.83938249e+03 -3.85018977e+03 
        </DataArray>
      </PointData>
    </Piece>
    <Piece NumberOfPoints="16" NumberOfCells="9">
      <Points>
        <DataArray type="Float64" NumberOfComponents="3" format="ascii">
          3.00000000e+00 2.00000000e+00 0.00000000e+00 
4.00000000e+00 2.00000000e+00 0.00000000e+00 
5.00000000e+00 2.00000000e+00 0.00000000e+00 
6.00000000e+00 2.00000000e+00 0.00000000e+00 
3.00000000e+00 2.33333325e+00 0.00000000e+00 
4.00000000e+00 2.33333325e+00 0.00000000e+00 
5.00000000e+00 2.33333325e+00 0.00000000e+00 
6.00000000e+00 2.33333325e+00 0.00000000e+00 
3.00000000e+00 2.66666675e+00 0.00000000e+00 
4.00000000e+00 2.66666675e+00 0.00000000e+00 
5.00000000e+00 2.66666675e+00 0.00000000e+00 
6.00000000e+00 2.66666675e+00 0.00000000e+00 
3.00000000e+00 3.00000000e+00 0.00000000e+00 
4.00000000e+00 3.00000000e+00 0.00000000e+00 
5.00000000e+00 3.00000000e+00 0.00000000e+00 
6.00000000e+00 3.00000000e+00 0.00000000e+00 

        </DataArray>
      </Points>
      <Cells>
        <DataArray type="Int32" Name="connectivity" format="ascii">
0 1 5 4
4 5 9 8
8 9 13 12
1 2 6 5
5 6 10 9
9 10 14 13
2 3 7 6
6 7 11 10
10 11 15 14

        </DataArray>
        <DataArray type="Int32" Name="offsets" format="ascii">
4 8 12 16 20 24 28 32 36 
        </DataArray>
        <DataArray type="UInt8" Name="types" format="ascii">
9 9 9 9 9 9 9 9 9 
        </DataArray>
      </Cells>
      <PointData>
        <DataArray type="Float64" Name="u">
          0.00000000e+00 -4.94509280e+00 -3.58436925e+00 1.76126195e+00 0.00000000e+00 3.02784579e-01 7.64062416e+00 2.46926873e+01 0.00000000e+00 1.52668762e+01 2.95922055e+01 5.60427541e+01 0.00000000e+00 5.67936049e+01 7.24280101e+01 1.00040320e+02 
        </DataArray>
        <DataArray type="Float64" Name="v">
          0.00000000e+00 1.39119785e+01 1.05233850e+01 2.59930667e+00 0.00000000e+00 1.48004363e+01 6.85766721e+00 -3.43060462e+00 0.00000000e+00 1.09297108e+01 2.64289295e+00 -8.00827788e+00 0.00000000e+00 -1.27945235e+00 -7.22168347e+00 -1.32604973e+01 
        </DataArray>
        <DataArray type="Float64" Name="p">
          -3.78815582e+03 -3.83761249e+03 -3.88706916e+03 -3.93652583e+03 -3.95202927e+03 -3.90012836e+03 -3.84822746e+03 -3.79632655e+03 -4.11590272e+03 -3.96264424e+03 -3.80938576e+03 -3.65612728e+03 -4.27977617e+03 -4.02516012e+03 -3.77054406e+03 -3.51592800e+03 
        </DataArray>
      </PointData>
    </Piece>
    <Piece NumberOfPoints="16" NumberOfCells="9">
      <Points>
        <DataArray type="Float64" NumberOfComponents="3" format="ascii">
          3.00000000e+00 3.00000000e+00 0.00000000e+00 
4.00000000e+00 3.00000000e+00 0.00000000e+00 
5.00000000e+00 3.00000000e+00 0.00000000e+00 
6.00000000e+00 3.00000000e+00 0.00000000e+00 
3.00000000e+00 3.33333325e+00 0.00000000e+00 
4.00000000e+00 3.33333325e+00 0.00000000e+00 
5.00000000e+00 3.33333325e+00 0.00000000e+00 
6.00000000e+00 3.33333325e+00 0.00000000e+00 
3.00000000e+00 3.66666675e+00 0.00000000e+00 
4.00000000e+00 3.66666675e+00 0.00000000e+00 
5.00000000e+00 3.66666675e+00 0.00000000e+00 
6.00000000e+00 3.66666675e+00 0.00000000e+00 
3.00000000e+00 4.00000000e+00 0.00000000e+00 
4.00000000e+00 4.00000000e+00 0.00000000e+00 
5.00000000e+00 4.00000000e+00 0.00000000e+00 
6.00000000e+00 4.00000000e+00 0.00000000e+00 

        </DataArray>
      </Points>
      <Cells>
        <DataArray type="Int32" Name="connectivity" format="ascii">
0 1 5 4
4 5 9 8
8 9 13 12
1 2 6 5
5 6 10 9
9 10 14 13
2 3 7 6
6 7 11 10
10 11 15 14

        </DataArray>
        <DataArray type="Int32" Name="offsets" format="ascii">
4 8 12 16 20 24 28 32 36 
        </DataArray>
        <DataArray type="UInt8" Name="types" format="ascii">
9 9 9 9 9 9 9 9 9 
        </DataArray>
      </Cells>
      <PointData>
        <DataArray type="Float64" Name="u">
          0.00000000e+00 5.67936049e+01 7.24280101e+01 1.00040320e+02 1.03471238e+02 1.13942920e+02 1.28873236e+02 1.44355316e+02 1.66204373e+02 1.68507157e+02 1.76511779e+02 1.83043258e+02 2.06961746e+02 2.03759163e+02 2.07792642e+02 2.05802699e+02 
        </DataArray>
        <DataArray type="Float64" Name="v">
          0.00000000e+00 -1.27945235e+00 -7.22168347e+00 -1.32604973e+01 -4.31295564e+00 -1.28803294e+01 -1.60138622e+01 -1.70459975e+01 -4.28564780e+00 -1.26145442e+01 -1.70891312e+01 -1.89926457e+01 -6.94323936e+00 -1.42043493e+01 -1.89241539e+01 -2.31185426e+01 
        </DataArray>
        <DataArray type="Float64" Name="p">
          -4.43306685e+03 -4.10806438e+03 -3.78306191e+03 -3.45805943e+03 -3.93862270e+03 -3.78403724e+03 -3.62945179e+03 -3.47486633e+03 -3.44417855e+03 -3.46001011e+03 -3.47584167e+03 -3.49167323e+03 -2.94973440e+03 -3.13598298e+03 -3.32223155e+03 -3.50848012e+03 
        </DataArray>
      </PointData>
    </Piece>
    <Piece NumberOfPoints="16" NumberOfCells="9">
      <Points>
        <DataArray type="Float64" NumberOfComponents="3" format="ascii">
          3.00000000e+00 4.00000000e+00 0.00000000e+00 
4.00000000e+00 4.00000000e+00 0.00000000e+00 
5.00000000e+00 4.00000000e+00 0.00000000e+00 
6.00000000e+00 4.00000000e+00 0.00000000e+00 
3.00000000e+00 4.33333349e+00 0.00000000e+00 
4.00000000e+00 4.33333349e+00 0.00000000e+00 
5.00000000e+00 4.33333349e+00 0.00000000e+00 
6.00000000e+00 4.33333349e+00 0.00000000e+00 
3.00000000e+00 4.66666651e+00 0.00000000e+00 
4.00000000e+00 4.66666651e+00 0.00000000e+00 
5.00000000e+00 4.66666651e+00 0.00000000e+00 
6.00000000e+00 4.66666651e+00 0.00000000e+00 
3.00000000e+00 5.00000000e+00 0.00000000e+00 
4.00000000e+00 5.00000000e+00 0.00000000e+00 
5.00000000e+00 5.00000000e+00 0.00000000e+00 
6.00000000e+00 5.00000000e+00 0.00000000e+00 

        </DataArray>
      </Points>
      <Cells>
        <DataArray type="Int32" Name="connectivity" format="ascii">
0 1 5 4
4 5 9 8
8 9 13 12
1 2 6 5
5 6 10 9
9 10 14 13
2 3 7 6
6 7 11 10
10 11 15 14

        </DataArray>
        <DataArray type="Int32" Name="offsets" format="ascii">
4 8 12 16 20 24 28 32 36 
        </DataArray>
        <DataArray type="UInt8" Name="types" format="ascii">
9 9 9 9 9 9 9 9 9 
        </DataArray>
      </Cells>
      <PointData>
        <DataArray type="Float64" Name="u">
          2.06961746e+02 2.03759163e+02 2.07792642e+02 2.05802699e+02 2.24211113e+02 2.18726626e+02 2.17079345e+02 2.09702353e+02 2.19222464e+02 2.10995146e+02 2.05431286e+02 1.92940577e+02 1.92370542e+02 1.82913601e+02 1.74695933e+02 1.59525239e+02 
        </DataArray>
        <DataArray type="Float64" Name="v">
          -6.94323936e+00 -1.42043493e+01 -1.89241539e+01 -2.31185426e+01 -7.05147021e+00 -1.18977321e+01 -1.73010978e+01 -2.24683707e+01 -7.15996468e+00 -1.15996452e+01 -1.56727770e+01 -2.04214663e+01 -6.07092525e+00 -7.17771686e+00 -1.11811771e+01 -1.61742550e+01 
        </DataArray>
        <DataArray type="Float64" Name="p">
          -2.81875540e+03 -3.02627349e+03 -3.23379157e+03 -3.44130966e+03 -2.48299450e+03 -2.66472536e+03 -2.84645622e+03 -3.02818708e+03 -2.14723360e+03 -2.30317724e+03 -2.45912087e+03 -2.61506450e+03 -1.81147271e+03 -1.94162911e+03 -2.07178552e+03 -2.20194193e+03 
        </DataArray>
      </PointData>
    </Piece>
    <Piece NumberOfPoints="16" NumberOfCells="9">
      <Points>
        <DataArray type="Float64" NumberOfComponents="3" format="ascii">
          3.00000000e+00 5.00000000e+00 0.00000000e+00 
4.00000000e+00 5.00000000e+00 0.00000000e+00 
5.00000000e+00 5.00000000e+00 0.00000000e+00 
6.00000000e+00 5.00000000e+00 0.00000000e+00 
3.00000000e+00 5.33333349e+00 0.00000000e+00 
4.00000000e+00 5.33333349e+00 0.00000000e+00 
5.00000000e+00 5.33333349e+00 0.00000000e+00 
6.00000000e+00 5.33333349e+00 0.00000000e+00 
3.00000000e+00 5.66666651e+00 0.00000000e+00 
4.00000000e+00 5.66666651e+00 0.00000000e+00 
5.00000000e+00 5.66666651e+00 0.00000000e+00 
6.00000000e+00 5.66666651e+00 0.00000000e+00 
3.00000000e+00 6.00000000e+00 0.00000000e+00 
4.00000000e+00 6.00000000e+00 0.00000000e+00 
5.00000000e+00 6.00000000e+00 0.00000000e+00 
6.00000000e+00 6.00000000e+00 0.00000000e+00 

        </DataArray>
      </Points>
      <Cells>
        <DataArray type="Int32" Name="connectivity" format="ascii">
0 1 5 4
4 5 9 8
8 9 13 12
1 2 6 5
5 6 10 9
9 10 14 13
2 3 7 6
6 7 11 10
10 11 15 14

        </DataArray>
        <DataArray type="Int32" Name="offsets" format="ascii">
4 8 12 16 20 24 28 32 36 
        </DataArray>
        <DataArray type="UInt8" Name="types" format="ascii">
9 9 9 9 9 9 9 9 9 
        </DataArray>
      </Cells>
      <PointData>
        <DataArray type="Float64" Name="u">
          1.92370542e+02 1.82913601e+02 1.74695933e+02 1.59525239e+02 1.44747927e+02 1.35168108e+02 1.26866043e+02 1.13466173e+02 7.59213595e+01 7.66684980e+01 7.26353276e+01 6.75520775e+01 0.00000000e+00 3.18936384e+01 3.05632607e+01 3.71886079e+01 
        </DataArray>
        <DataArray type="Float64" Name="v">
          -6.07092525e+00 -7.17771686e+00 -1.11811771e+01 -1.61742550e+01 -3.82560848e+00 -2.69503478e+00 -5.28137833e+00 -1.04319947e+01 -2.38944264e+00 -2.63549855e+00 -6.06272064e+00 -8.61366892e+00 0.00000000e+00 -6.75061255e+00 -5.13130688e+00 -3.47283613e+00 
        </DataArray>
        <DataArray type="Float64" Name="p">
          -1.87071572e+03 -1.93017583e+03 -1.98963594e+03 -2.04909605e+03 -1.97622495e+03 -1.93661636e+03 -1.89700776e+03 -1.85739916e+03 -2.08173419e+03 -1.94305688e+03 -1.80437958e+03 -1.66570228e+03 -2.18724342e+03 -1.94949741e+03 -1.71175140e+03 -1.47400539e+03 
        </DataArray>
      </PointData>
    </Piece>
    <Piece NumberOfPoints="16" NumberOfCells="9">
      <Points>
        <DataArray type="Float64" NumberOfComponents="3" format="ascii">
          3.00000000e+00 6.00000000e+00 0.00000000e+00 
4.00000000e+00 6.00000000e+00 0.00000000e+00 
5.00000000e+00 6.00000000e+00 0.00000000e+00 
6.00000000e+00 6.00000000e+00 0.00000000e+00 
3.00000000e+00 6.33333349e+00 0.00000000e+00 
4.00000000e+00 6.33333349e+00 0.00000000e+00 
5.00000000e+00 6.33333349e+00 0.00000000e+00 
6.00000000e+00 6.33333349e+00 0.00000000e+00 
3.00000000e+00 6.66666651e+00 0.00000000e+00 
4.00000000e+00 6.66666651e+00 0.00000000e+00 
5.00000000e+00 6.66666651e+00 0.00000000e+00 
6.00000000e+00 6.66666651e+00 0.00000000e+00 
3.00000000e+00 7.00000000e+00 0.00000000e+00 
4.00000000e+00 7.00000000e+00 0.00000000e+00 
5.00000000e+00 7.00000000e+00 0.00000000e+00 
6.00000000e+00 7.00000000e+00 0.00000000e+00 

        </DataArray>
      </Points>
      <Cells>
        <DataArray type="Int32" Name="connectivity" format="ascii">
0 1 5 4
4 5 9 8
8 9 13 12
1 2 6 5
5 6 10 9
9 10 14 13
2 3 7 6
6 7 11 10
10 11 15 14

        </DataArray>
        <DataArray type="Int32" Name="offsets" format="ascii">
4 8 12 16 20 24 28 32 36 
        </DataArray>
        <DataArray type="UInt8" Name="types" format="ascii">
9 9 9 9 9 9 9 9 9 
        </DataArray>
      </Cells>
      <PointData>
        <DataArray type="Float64" Name="u">
          0.00000000e+00 3.18936384e+01 3.05632607e+01 3.71886079e+01 0.00000000e+00 5.90492746e+00 8.26033723e+00 1.35202933e+01 0.00000000e+00 -2.95329011e+00 -2.54153235e+00 -1.37618723e+00 0.00000000e+00 -5.83954174e+00 -7.75394164e+00 -1.04176008e+01 
        </DataArray>
        <DataArray type="Float64" Name="v">
          0.00000000e+00 -6.75061255e+00 -5.13130688e+00 -3.47283613e+00 0.00000000e+00 -1.21657361e+01 -7.52200404e+00 -2.98705410e+00 0.00000000e+00 -1.29338508e+01 -7.49819320e+00 -3.39183956e+00 0.00000000e+00 -1.10945487e+01 -7.61083564e+00 -4.07021655e+00 
        </DataArray>
        <DataArray type="Float64" Name="p">
          -2.16677759e+03 -1.99438219e+03 -1.82198679e+03 -1.64959139e+03 -2.05396734e+03 -1.93474143e+03 -1.81551552e+03 -1.69628961e+03 -1.94115710e+03 -1.87510068e+03 -1.80904425e+03 -1.74298783e+03 -1.82834686e+03 -1.81545992e+03 -1.80257298e+03 -1.78968605e+03 
        </DataArray>
      </PointData>
    </Piece>
    <Piece NumberOfPoints="16" NumberOfCells="9">
      <Points>
        <DataArray type="Float64" NumberOfComponents="3" format="ascii">
          3.00000000e+00 7.00000000e+00 0.00000000e+00 
4.00000000e+00 7.00000000e+00 0.00000000e+00 
5.00000000e+00 7.00000000e+00 0.00000000e+00 
6.00000000e+00 7.00000000e+00 0.00000000e+00 
3.00000000e+00 7.33333349e+00 0.00000000e+00 
4.00000000e+00 7.33333349e+00 0.00000000e+00 
5.00000000e+00 7.33333349e+00 0.00000000e+00 
6.00000000e+00 7.33333349e+00 0.00000000e+00 
3.00000000e+00 7.66666651e+00 0.00000000e+00 
4.00000000e+00 7.66666651e+00 0.00000000e+00 
5.00000000e+00 7.66666651e+00 0.00000000e+00 
6.00000000e+00 7.66666651e+00 0.00000000e+00 
3.00000000e+00 8.00000000e+00 0.00000000e+00 
4.00000000e+00 8.00000000e+00 0.00000000e+00 
5.00000000e+00 8.00000000e+00 0.00000000e+00 
6.00000000e+00 8.00000000e+00 0.00000000e+00 

        </DataArray>
      </Points>
      <Cells>
        <DataArray type="Int32" Name="connectivity" format="ascii">
0 1 5 4
4 5 9 8
8 9 13 12
1 2 6 5
5 6 10 9
9 10 14 13
2 3 7 6
6 7 11 10
10 11 15 14

        </DataArray>
        <DataArray type="Int32" Name="offsets" format="ascii">
4 8 12 16 20 24 28 32 36 
        </DataArray>
        <DataArray type="UInt8" Name="types" format="ascii">
9 9 9 9 9 9 9 9 9 
        </DataArray>
      </Cells>
      <PointData>
        <DataArray type="Float64" Name="u">
          0.00000000e+00 -5.83954174e+00 -7.75394164e+00 -1.04176008e+01 0.00000000e+00 -6.61997216e+00 -1.01724120e+01 -1.45440035e+01 0.00000000e+00 -6.31209287e+00 -1.04601698e+01 -1.55517295e+01 0.00000000e+00 -5.36625409e+00 -9.22367100e+00 -1.41746047e+01 
        </DataArray>
        <DataArray type="Float64" Name="v">
          0.00000000e+00 -1.10945487e+01 -7.61083564e+00 -4.07021655e+00 0.00000000e+00 -8.49273393e+00 -6.24824637e+00 -3.68587587e+00 0.00000000e+00 -6.26672196e+00 -4.81118635e+00 -2.96774832e+00 0.00000000e+00 -3.66066962e+00 -2.99683046e+00 -1.92073445e+00 
        </DataArray>
        <DataArray type="Float64" Name="p">
          -1.83712727e+03 -1.80826924e+03 -1.77941120e+03 -1.75055316e+03 -1.80600501e+03 -1.78195628e+03 -1.75790755e+03 -1.73385882e+03 -1.77488274e+03 -1.75564332e+03 -1.73640390e+03 -1.71716447e+03 -1.74376048e+03 -1.72933036e+03 -1.71490024e+03 -1.70047013e+03 
        </DataArray>
      </PointData>
    </Piece>
    <Piece NumberOfPoints="16" NumberOfCells="9">
      <Points>
        <DataArray type="Float64" NumberOfComponents="3" format="ascii">
          3.00000000e+00 8.00000000e+00 0.00000000e+00 
4.00000000e+00 8.00000000e+00 0.00000000e+00 
5.00000000e+00 8.00000000e+00 0.00000000e+00 
6.00000000e+00 8.00000000e+00 0.00000000e+00 
3.00000000e+00 8.33333302e+00 0.00000000e+00 
4.00000000e+00 8.33333302e+00 0.00000000e+00 
5.00000000e+00 8.33333302e+00 0.00000000e+00 
6.00000000e+00 8.33333302e+00 0.00000000e+00 
3.00000000e+00 8.66666698e+00 0.00000000e+00 
4.00000000e+00 8.66666698e+00 0.00000000e+00 
5.00000000e+00 8.66666698e+00 0.00000000e+00 
6.00000000e+00 8.66666698e+00 0.00000000e+00 
3.00000000e+00 9.00000000e+00 0.00000000e+00 
4.00000000e+00 9.00000000e+00 0.00000000e+00 
5.00000000e+00 9.00000000e+00 0.00000000e+00 
6.00000000e+00 9.00000000e+00 0.00000000e+00 

        </DataArray>
      </Points>
      <Cells>
        <DataArray type="Int32" Name="connectivity" format="ascii">
0 1 5 4
4 5 9 8
8 9 13 12
1 2 6 5
5 6 10 9
9 10 14 13
2 3 7 6
6 7 11 10
10 11 15 14

        </DataArray>
        <DataArray type="Int32" Name="offsets" format="ascii">
4 8 12 16 20 24 28 32 36 
        </DataArray>
        <DataArray type="UInt8" Name="types" format="ascii">
9 9 9 9 9 9 9 9 9 
        </DataArray>
      </Cells>
      <PointData>
        <DataArray type="Float64" Name="u">
          0.00000000e+00 -5.36625409e+00 -9.22367100e+00 -1.41746047e+01 0.00000000e+00 -3.98202350e+00 -6.87032419e+00 -1.09813948e+01 0.00000000e+00 -2.19546359e+00 -3.69727757e+00 -6.18697170e+00 0.00000000e+00 0.00000000e+00 0.00000000e+00 0.00000000e+00 
        </DataArray>
        <DataArray type="Float64" Name="v">
          0.00000000e+00 -3.66066962e+00 -2.99683046e+00 -1.92073445e+00 0.00000000e+00 -1.64164413e+00 -1.42504927e+00 -8.84302762e-01 0.00000000e+00 -5.26557892e-01 -4.93290827e-01 -2.93895972e-01 0.00000000e+00 0.00000000e+00 0.00000000e+00 0.00000000e+00 
        </DataArray>
        <DataArray type="Float64" Name="p">
          -1.74974497e+03 -1.73308985e+03 -1.71643474e+03 -1.69977962e+03 -1.75600235e+03 -1.73884813e+03 -1.72169390e+03 -1.70453968e+03 -1.76225973e+03 -1.74460640e+03 -1.72695307e+03 -1.70929973e+03 -1.76851712e+03 -1.75036467e+03 -1.73221223e+03 -1.71405979e+03 
        </DataArray>
      </PointData>
    </Piece>
    <Piece NumberOfPoints="16" NumberOfCells="9">
      <Points>
        <DataArray type="Float64" NumberOfComponents="3" format="ascii">
          6.00000000e+00 0.00000000e+00 0.00000000e+00 
7.00000000e+00 0.00000000e+00 0.00000000e+00 
8.00000000e+00 0.00000000e+00 0.00000000e+00 
9.00000000e+00 0.00000000e+00 0.00000000e+00 
6.00000000e+00 3.33333343e-01 0.00000000e+00 
7.00000000e+00 3.33333343e-01 0.00000000e+00 
8.00000000e+00 3.33333343e-01 0.00000000e+00 
9.00000000e+00 3.33333343e-01 0.00000000e+00 
6.00000000e+00 6.66666687e-01 0.00000000e+00 
7.00000000e+00 6.66666687e-01 0.00000000e+00 
8.00000000e+00 6.66666687e-01 0.00000000e+00 
9.00000000e+00 6.66666687e-01 0.00000000e+00 
6.00000000e+00 1.00000000e+00 0.00000000e+00 
7.00000000e+00 1.00000000e+00 0.00000000e+00 
8.00000000e+00 1.00000000e+00 0.00000000e+00 
9.00000000e+00 1.00000000e+00 0.00000000e+00 

        </DataArray>
      </Points>
      <Cells>
        <DataArray type="Int32" Name="connectivity" format="ascii">
0 1 5 4
4 5 9 8
8 9 13 12
1 2 6 5
5 6 10 9
9 10 14 13
2 3 7 6
6 7 11 10
10 11 15 14

        </DataArray>
        <DataArray type="Int32" Name="offsets" format="ascii">
4 8 12 16 20 24 28 32 36 
        </DataArray>
        <DataArray type="UInt8" Name="types" format="ascii">
9 9 9 9 9 9 9 9 9 
        </DataArray>
      </Cells>
      <PointData>
        <DataArray type="Float64" Name="u">