<?xml version="1.0"?>
<VTKFile type="UnstructuredGrid" version="0.1" byte_order="LittleEndian">
  <UnstructuredGrid>
    <Piece NumberOfPoints="16" NumberOfCells="9">
      <Points>
        <DataArray type="Float64" NumberOfComponents="3" format="ascii">
          0.00000000e+00 3.00000000e+00 0.00000000e+00 
1.00000000e+00 3.00000000e+00 0.00000000e+00 
2.00000000e+00 3.00000000e+00 0.00000000e+00 
3.00000000e+00 3.00000000e+00 0.00000000e+00 
0.00000000e+00 3.33333325e+00 0.00000000e+00 
1.00000000e+00 3.33333325e+00 0.00000000e+00 
2.00000000e+00 3.33333325e+00 0.00000000e+00 
3.00000000e+00 3.33333325e+00 0.00000000e+00 
0.00000000e+00 3.66666675e+00 0.00000000e+00 
1.00000000e+00 3.66666675e+00 0.00000000e+00 
2.00000000e+00 3.66666675e+00 0.00000000e+00 
3.00000000e+00 3.66666675e+00 0.00000000e+00 
0.00000000e+00 4.00000000e+00 0.00000000e+00 
1.00000000e+00 4.00000000e+00 0.00000000e+00 
2.00000000e+00 4.00000000e+00 0.00000000e+00 
3.00000000e+00 4.00000000e+00 0.00000000e+00 

        </DataArray>
      </Points>
      <Cells>
        <DataArray type="Int32" Name="connectivity" format="ascii">
0 1 5 4
4 5 9 8
8 9 13 12
1 2 6 5
5 6 10 9
9 10 14 13
2 3 7 6
6 7 11 10
10 11 15 14

        </DataArray>
        <DataArray type="Int32" Name="offsets" format="ascii">
4 8 12 16 20 24 28 32 36 
        </DataArray>
        <DataArray type="UInt8" Name="types" format="ascii">
9 9 9 9 9 9 9 9 9 
        </DataArray>
      </Cells>
      <PointData>
        <DataArray type="Float64" Name="u">
          0.00000000e+00 0.00000000e+00 0.00000000e+00 0.00000000e+00 8.88888889e+01 8.92795419e+01 8.91653599e+01 9.01722400e+01 1.55555556e+02 1.55500823e+02 1.55946496e+02 1.55720588e+02 2.00000000e+02 1.99397506e+02 2.00253682e+02 1.99216465e+02 
        </DataArray>
        <DataArray type="Float64" Name="v">
          0.00000000e+00 0.00000000e+00 0.00000000e+00 0.00000000e+00 0.00000000e+00 -1.33548578e-01 1.51655015e-01 -1.43187753e+00 0.00000000e+00 -1.06276352e-01 -2.87978905e-02 -5.54453660e-01 0.00000000e+00 -1.56639738e-01 -4.73750609e-02 -5.75160751e-01 
        </DataArray>
        <DataArray type="Float64" Name="p">
          5.12472961e+03 3.47987173e+03 1.83501386e+03 1.90155981e+02 5.11147607e+03 3.47722192e+03 1.84296778e+03 2.08713642e+02 5.09822252e+03 3.47457212e+03 1.85092171e+03 2.27271303e+02 5.08496898e+03 3.47192231e+03 1.85887564e+03 2.45828964e+02 
        </DataArray>
      </PointData>
    </Piece>
    <Piece NumberOfPoints="16" NumberOfCells="9">
      <Points>
        <DataArray type="Float64" NumberOfComponents="3" format="ascii">
          0.00000000e+00 4.00000000e+00 0.00000000e+00 
1.00000000e+00 4.00000000e+00 0.00000000e+00 
2.00000000e+00 4.00000000e+00 0.00000000e+00 
3.00000000e+00 4.00000000e+00 0.00000000e+00 
0.00000000e+00 4.33333349e+00 0.00000000e+00 
1.00000000e+00 4.33333349e+00 0.00000000e+00 
2.00000000e+00 4.33333349e+00 0.00000000e+00 
3.00000000e+00 4.33333349e+00 0.00000000e+00 
0.00000000e+00 4.66666651e+00 0.00000000e+00 
1.00000000e+00 4.66666651e+00 0.00000000e+00 
2.00000000e+00 4.66666651e+00 0.00000000e+00 
3.00000000e+00 4.66666651e+00 0.00000000e+00 
0.00000000e+00 5.00000000e+00 0.00000000e+00 
1.00000000e+00 5.00000000e+00 0.00000000e+00 
2.00000000e+00 5.00000000e+00 0.00000000e+00 
3.00000000e+00 5.00000000e+00 0.00000000e+00 

        </DataArray>
      </Points>
      <Cells>
        <DataArray type="Int32" Name="connectivity" format="ascii">
0 1 5 4
4 5 9 8
8 9 13 12
1 2 6 5
5 6 10 9
9 10 14 13
2 3 7 6
6 7 11 10
10 11 15 14

        </DataArray>
        <DataArray type="Int32" Name="offsets" format="ascii">
4 8 12 16 20 24 28 32 36 
        </DataArray>
        <DataArray type="UInt8" Name="types" format="ascii">
9 9 9 9 9 9 9 9 9 
        </DataArray>
      </Cells>
      <PointData>
        <DataArray type="Float64" Name="u">
          2.00000000e+02 1.99397506e+02 2.00253682e+02 1.99216465e+02 2.22222222e+02 2.21446381e+02 2.22227273e+02 2.21296196e+02 2.22222222e+02 2.21446381e+02 2.22227273e+02 2.21296196e+02 2.00000000e+02 1.99397506e+02 2.00253682e+02 1.99216465e+02 
        </DataArray>
        <DataArray type="Float64" Name="v">
          0.00000000e+00 -1.56639738e-01 -4.73750609e-02 -5.75160751e-01 0.00000000e+00 1.11422219e-03 -6.96152419e-02 1.13718605e-01 0.00000000e+00 -1.11422233e-03 6.96152416e-02 -1.13718605e-01 0.00000000e+00 1.56639738e-01 4.73750607e-02 5.75160750e-01 
        </DataArray>
        <DataArray type="Float64" Name="p">
          5.09657272e+03 3.47863720e+03 1.86070168e+03 2.42766163e+02 5.09657272e+03 3.47863720e+03 1.86070168e+03 2.42766163e+02 5.09657272e+03 3.47863720e+03 1.86070168e+03 2.42766163e+02 5.09657272e+03 3.47863720e+03 1.86070168e+03 2.42766163e+02 
        </DataArray>
      </PointData>
    </Piece>
    <Piece NumberOfPoints="16" NumberOfCells="9">
      <Points>
        <DataArray type="Float64" NumberOfComponents="3" format="ascii">
          0.00000000e+00 5.00000000e+00 0.00000000e+00 
1.00000000e+00 5.00000000e+00 0.00000000e+00 
2.00000000e+00 5.00000000e+00 0.00000000e+00 
3.00000000e+00 5.00000000e+00 0.00000000e+00 
0.00000000e+00 5.33333349e+00 0.00000000e+00 
1.00000000e+00 5.33333349e+00 0.00000000e+00 
2.00000000e+00 5.33333349e+00 0.00000000e+00 
3.00000000e+00 5.33333349e+00 0.00000000e+00 
0.00000000e+00 5.66666651e+00 0.00000000e+00 
1.00000000e+00 5.66666651e+00 0.00000000e+00 
2.00000000e+00 5.66666651e+00 0.00000000e+00 
3.00000000e+00 5.66666651e+00 0.00000000e+00 
0.00000000e+00 6.00000000e+00 0.00000000e+00 
1.00000000e+00 6.00000000e+00 0.00000000e+00 
2.00000000e+00 6.00000000e+00 0.00000000e+00 
3.00000000e+00 6.00000000e+00 0.00000000e+00 

        </DataArray>
      </Points>
      <Cells>
        <DataArray type="Int32" Name="connectivity" format="ascii">
0 1 5 4
4 5 9 8
8 9 13 12
1 2 6 5
5 6 10 9
9 10 14 13
2 3 7 6
6 7 11 10
10 11 15 14

        </DataArray>
        <DataArray type="Int32" Name="offsets" format="ascii">
4 8 12 16 20 24 28 32 36 
        </DataArray>
        <DataArray type="UInt8" Name="types" format="ascii">
9 9 9 9 9 9 9 9 9 
        </DataArray>
      </Cells>
      <PointData>
        <DataArray type="Float64" Name="u">
          2.00000000e+02 1.99397506e+02 2.00253682e+02 1.99216465e+02 1.55555556e+02 1.55500823e+02 1.55946496e+02 1.55720588e+02 8.88888889e+01 8.92795419e+01 8.91653599e+01 9.01722400e+01 0.00000000e+00 0.00000000e+00 0.00000000e+00 0.00000000e+00 
        </DataArray>
        <DataArray type="Float64" Name="v">
          0.00000000e+00 1.56639738e-01 4.73750607e-02 5.75160750e-01 0.00000000e+00 1.06276352e-01 2.87978904e-02 5.54453660e-01 0.00000000e+00 1.33548578e-01 -1.51655015e-01 1.43187753e+00 0.00000000e+00 0.00000000e+00 0.00000000e+00 0.00000000e+00 
        </DataArray>
        <DataArray type="Float64" Name="p">
          5.08496898e+03 3.47192231e+03 1.85887564e+03 2.45828964e+02 5.09822252e+03 3.47457212e+03 1.85092171e+03 2.27271303e+02 5.11147607e+03 3.47722192e+03 1.84296778e+03 2.08713642e+02 5.12472961e+03 3.47987173e+03 1.83501386e+03 1.90155981e+02 
        </DataArray>
      </PointData>
    </Piece>
    <Piece NumberOfPoints="16" NumberOfCells="9">
      <Points>
        <DataArray type="Float64" NumberOfComponents="3" format="ascii">
          3.00000000e+00 0.00000000e+00 0.00000000e+00 
4.00000000e+00 0.00000000e+00 0.00000000e+00 
5.00000000e+00 0.00000000e+00 0.00000000e+00 
6.00000000e+00 0.00000000e+00 0.00000000e+00 
3.00000000e+00 3.33333343e-01 0.00000000e+00 
4.00000000e+00 3.33333343e-01 0.00000000e+00 
5.00000000e+00 3.33333343e-01 0.00000000e+00 
6.00000000e+00 3.33333343e-01 0.00000000e+00 
3.00000000e+00 6.66666687e-01 0.00000000e+00 
4.00000000e+00 6.66666687e-01 0.00000000e+00 
5.00000000e+00 6.66666687e-01 0.00000000e+00 
6.00000000e+00 6.66666687e-01 0.00000000e+00 
3.00000000e+00 1.00000000e+00 0.00000000e+00 
4.00000000e+00 1.00000000e+00 0.00000000e+00 
5.00000000e+00 1.00000000e+00 0.00000000e+00 
6.00000000e+00 1.00000000e+00 0.00000000e+00 

        </DataArray>
      </Points>
      <Cells>
        <DataArray type="Int32" Name="connectivity" format="ascii">
0 1 5 4
4 5 9 8
8 9 13 12
1 2 6 5
5 6 10 9
9 10 14 13
2 3 7 6
6 7 11 10
10 11 15 14

        </DataArray>
        <DataArray type="Int32" Name="offsets" format="ascii">
4 8 12 16 20 24 28 32 36 
        </DataArray>
        <DataArray type="UInt8" Name="types" format="ascii">
9 9 9 9 9 9 9 9 9 
        </DataArray>
      </Cells>
      <PointData>
        <DataArray type="Float64" Name="u">
          0.00000000e+00 0.00000000e+00 0.00000000e+00 0.00000000e+00 0.00000000e+00 -4.16151095e+00 -6.12639312e+00 -1.07813187e+01 0.00000000e+00 -7.07932213e+00 -1.07187018e+01 -1.79441300e+01 0.00000000e+00 -8.88105063e+00 -1.32580690e+01 -2.11045928e+01 
        </DataArray>
        <DataArray type="Float64" Name="v">
          0.00000000e+00 0.00000000e+00 0.00000000e+00 0.00000000e+00 0.00000000e+00 9.49294540e-01 9.01153230e-01 5.17071211e-01 0.00000000e+00 2.78920683e+00 2.45260894e+00 1.35766807e+00 0.00000000e+00 6.00036036e+00 5.00444809e+00 2.74588758e+00 
        </DataArray>
        <DataArray type="Float64" Name="p">
          4.03210599e+02 5.00915811e+02 5.98621022e+02 6.96326234e+02 4.19714624e+02 5.15453577e+02 6.11192530e+02 7.06931484e+02 4.36218648e+02 5.29991343e+02 6.23764038e+02 7.17536733e+02 4.52722672e+02 5.44529109e+02 6.36335546e+02 7.28141983e+02 
        </DataArray>
      </PointData>
    </Piece>
    <Piece NumberOfPoints="16" NumberOfCells="9">
      <Points>
        <DataArray type="Float64" NumberOfComponents="3" format="ascii">
          3.00000000e+00 1.00000000e+00 0.00000000e+00 
4.00000000e+00 1.00000000e+00 0.00000000e+00 
5.00000000e+00 1.00000000e+00 0.00000000e+00 
6.00000000e+00 1.00000000e+00 0.00000000e+00 
3.00000000e+00 1.33333337e+00 0.00000000e+00 
4.00000000e+00 1.33333337e+00 0.00000000e+00 
5.00000000e+00 1.33333337e+00 0.00000000e+00 
6.00000000e+00 1.33333337e+00 0.00000000e+00 
3.00000000e+00 1.66666663e+00 0.00000000e+00 
4.00000000e+00 1.66666663e+00 0.00000000e+00 
5.00000000e+00 1.66666663e+00 0.00000000e+00 
6.00000000e+00 1.66666663e+00 0.00000000e+00 
3.00000000e+00 2.00000000e+00 0.00000000e+00 
4.00000000e+00 2.00000000e+00 0.00000000e+00 
5.00000000e+00 2.00000000e+00 0.00000000e+00 
6.00000000e+00 2.00000000e+00 0.00000000e+00 

        </DataArray>
      </Points>
      <Cells>
        <DataArray type="Int32" Name="connectivity" format="ascii">
0 1 5 4
4 5 9 8
8 9 13 12
1 2 6 5
5 6 10 9
9 10 14 13
2 3 7 6
6 7 11 10
10 11 15 14

        </DataArray>
        <DataArray type="Int32" Name="offsets" format="ascii">
4 8 12 16 20 24 28 32 36 
        </DataArray>
        <DataArray type="UInt8" Name="types" format="ascii">
9 9 9 9 9 9 9 9 9 
        </DataArray>
      </Cells>
      <PointData>
        <DataArray type="Float64" Name="u">
          0.00000000e+00 -8.88105063e+00 -1.32580690e+01 -2.11045928e+01 0.00000000e+00 -9.58672251e+00 -1.33392108e+01 -2.00566682e+01 0.00000000e+00 -8.94336592e+00 -1.05451417e+01 -1.42361997e+01 0.00000000e+00 -6.28057508e+00 -4.24207009e+00 -3.04127201e+00 
        </DataArray>
        <DataArray type="Float64" Name="v">
          0.00000000e+00 6.00036036e+00 5.00444809e+00 2.74588758e+00 0.00000000e+00 9.72366954e+00 7.52037061e+00 3.65150670e+00 0.00000000e+00 1.26082481e+01 9.16878277e+00 3.69107503e+00 0.00000000e+00 1.53308117e+01 9.87638520e+00 2.48021155e+00 
        </DataArray>
        <DataArray type="Float64" Name="p">
          4.63109015e+02 5.47438256e+02 6.31767498e+02 7.16096739e+02 3.85529144e+02 4.79331604e+02 5.73134064e+02 6.66936523e+02 3.07949274e+02 4.11224952e+02 5.14500630e+02 6.17776307e+02 2.30369403e+02 3.43118299e+02 4.55867196e+02 5.68616092e+02 
        </DataArray>
      </PointData>
    </Piece>
    <Piece NumberOfPoints="16" NumberOfCells="9">
      <Points>
        <DataArray type="Float64" NumberOfComponents="3" format="ascii">
          3.00000000e+00 2.00000000e+00 0.00000000e+00 
4.00000000e+00 2.00000000e+00 0.00000000e+00 
5.00000000e+00 2.00000000e+00 0.00000000e+00 
6.00000000e+00 2.00000000e+00 0.00000000e+00 
3.00000000e+00 2.33333325e+00 0.00000000e+00 
4.00000000e+00 2.33333325e+00 0.00000000e+00 
5.00000000e+00 2.33333325e+00 0.00000000e+00 
6.00000000e+00 2.33333325e+00 0.00000000e+00 
3.00000000e+00 2.66666675e+00 0.00000000e+00 
4.00000000e+00 2.66666675e+00 0.00000000e+00 
5.00000000e+00 2.66666675e+00 0.00000000e+00 
6.00000000e+00 2.66666675e+00 0.00000000e+00 
3.00000000e+00 3.00000000e+00 0.00000000e+00 
4.00000000e+00 3.00000000e+00 0.00000000e+00 
5.00000000e+00 3.00000000e+00 0.00000000e+00 
6.00000000e+00 3.00000000e+00 0.00000000e+00 

        </DataArray>
      </Points>
      <Cells>
        <DataArray type="Int32" Name="connectivity" format="ascii">
0 1 5 4
4 5 9 8
8 9 13 12
1 2 6 5
5 6 10 9
9 10 14 13
2 3 7 6
6 7 11 10
10 11 15 14

        </DataArray>
        <DataArray type="Int32" Name="offsets" format="ascii">
4 8 12 16 20 24 28 32 36 
        </DataArray>
        <DataArray type="UInt8" Name="types" format="ascii">
9 9 9 9 9 9 9 9 9 
        </DataArray>
      </Cells>
      <PointData>
        <DataArray type="Float64" Name="u">
          0.00000000e+00 -6.28057508e+00 -4.24207009e+00 -3.04127201e+00 0.00000000e+00 -1.08270550e-01 6.28787662e+00 1.52104305e+01 0.00000000e+00 1.49808016e+01 2.48902458e+01 4.00389029e+01 0.00000000e+00 4.98963525e+01 5.64655745e+01 7.34256494e+01 
        </DataArray>
        <DataArray type="Float64" Name="v">
          0.00000000e+00 1.53308117e+01 9.87638520e+00 2.48021155e+00 0.00000000e+00 1.63402306e+01 7.80407894e+00 -6.57043904e-01 0.00000000e+00 1.27238182e+01 5.06009536e+00 -2.84948316e+00 0.00000000e+00 2.12533936e+00 -1.03380106e+00 -3.88360499e+00 
        </DataArray>
        <DataArray type="Float64" Name="p">
          2.61863855e+02 3.31699140e+02 4.01534424e+02 4.71369709e+02 -1.08559675e+01 2.02812491e+02 4.16480949e+02 6.30149408e+02 -2.83575790e+02 7.39258421e+01 4.31427475e+02 7.88929107e+02 -5.56295613e+02 -5.49608068e+01 4.46374000e+02 9.47708806e+02 
        </DataArray>
      </PointData>
    </Piece>
    <Piece NumberOfPoints="16" NumberOfCells="9">
      <Points>
        <DataArray type="Float64" NumberOfComponents="3" format="ascii">
          3.00000000e+00 3.00000000e+00 0.00000000e+00 
4.00000000e+00 3.00000000e+00 0.00000000e+00 
5.00000000e+00 3.00000000e+00 0.00000000e+00 
6.00000000e+00 3.00000000e+00 0.00000000e+00 
3.00000000e+00 3.33333325e+00 0.00000000e+00 
4.00000000e+00 3.33333325e+00 0.00000000e+00 
5.00000000e+00 3.33333325e+00 0.00000000e+00 
6.00000000e+00 3.33333325e+00 0.00000000e+00 
3.00000000e+00 3.66666675e+00 0.00000000e+00 
4.00000000e+00 3.66666675e+00 0.00000000e+00 
5.00000000e+00 3.66666675e+00 0.00000000e+00 
6.00000000e+00 3.66666675e+00 0.00000000e+00 
3.00000000e+00 4.00000000e+00 0.00000000e+00 
4.00000000e+00 4.00000000e+00 0.00000000e+00 
5.00000000e+00 4.00000000e+00 0.00000000e+00 
6.00000000e+00 4.00000000e+00 0.00000000e+00 

        </DataArray>
      </Points>
      <Cells>
        <DataArray type="Int32" Name="connectivity" format="ascii">
0 1 5 4
4 5 9 8
8 9 13 12
1 2 6 5
5 6 10 9
9 10 14 13
2 3 7 6
6 7 11 10
10 11 15 14

        </DataArray>
        <DataArray type="Int32" Name="offsets" format="ascii">
4 8 12 16 20 24 28 32 36 
        </DataArray>
        <DataArray type="UInt8" Name="types" format="ascii">
9 9 9 9 9 9 9 9 9 
        </DataArray>
      </Cells>
      <PointData>
        <DataArray type="Float64" Name="u">
          0.00000000e+00 4.98963525e+01 5.64655745e+01 7.34256494e+01 9.01722400e+01 9.72539720e+01 1.03162235e+02 1.08345311e+02 1.55720588e+02 1.50779179e+02 1.51120206e+02 1.48011953e+02 1.99216465e+02 1.90899726e+02 1.88772609e+02 1.80299560e+02 
        </DataArray>
        <DataArray type="Float64" Name="v">
          0.00000000e+00 2.12533936e+00 -1.03380106e+00 -3.88360499e+00 -1.43187753e+00 -6.35484800e+00 -4.83834289e+00 -2.24317915e+00 -5.54453660e-01 -6.94132366e+00 -6.54620295e+00 -2.38253150e+00 -5.75160751e-01 -4.67635936e+00 -4.20927086e+00 -2.01095565e+00 
        </DataArray>
        <DataArray type="Float64" Name="p">
          -6.26935339e+02 -3.44182018e+01 5.58098935e+02 1.15061607e+03 -1.83834992e+02 1.76636678e+02 5.37108347e+02 8.97580017e+02 2.59265354e+02 3.87691557e+02 5.16117760e+02 6.44543963e+02 7.02365700e+02 5.98746436e+02 4.95127172e+02 3.91507908e+02 
        </DataArray>
      </PointData>
    </Piece>
    <Piece NumberOfPoints="16" NumberOfCells="9">
      <Points>
        <DataArray type="Float64" NumberOfComponents="3" format="ascii">
          3.00000000e+00 4.00000000e+00 0.00000000e+00 
4.00000000e+00 4.00000000e+00 0.00000000e+00 
5.00000000e+00 4.00000000e+00 0.00000000e+00 
6.00000000e+00 4.00000000e+00 0.00000000e+00 
3.00000000e+00 4.33333349e+00 0.00000000e+00 
4.00000000e+00 4.33333349e+00 0.00000000e+00 
5.00000000e+00 4.33333349e+00 0.00000000e+00 
6.00000000e+00 4.33333349e+00 0.00000000e+00 
3.00000000e+00 4.66666651e+00 0.00000000e+00 
4.00000000e+00 4.66666651e+00 0.00000000e+00 
5.00000000e+00 4.66666651e+00 0.00000000e+00 
6.00000000e+00 4.66666651e+00 0.00000000e+00 
3.00000000e+00 5.00000000e+00 0.00000000e+00 
4.00000000e+00 5.00000000e+00 0.00000000e+00 
5.00000000e+00 5.00000000e+00 0.00000000e+00 
6.00000000e+00 5.00000000e+00 0.00000000e+00 

        </DataArray>
      </Points>
      <Cells>
        <DataArray type="Int32" Name="connectivity" format="ascii">
0 1 5 4
4 5 9 8
8 9 13 12
1 2 6 5
5 6 10 9
9 10 14 13
2 3 7 6
6 7 11 10
10 11 15 14

        </DataArray>
        <DataArray type="Int32" Name="offsets" format="ascii">
4 8 12 16 20 24 28 32 36 
        </DataArray>
        <DataArray type="UInt8" Name="types" format="ascii">
9 9 9 9 9 9 9 9 9 
        </DataArray>
      </Cells>
      <PointData>
        <DataArray type="Float64" Name="u">
          1.99216465e+02 1.90899726e+02 1.88772609e+02 1.80299560e+02 2.21296196e+02 2.11723273e+02 2.08162518e+02 1.98358823e+02 2.21296196e+02 2.11723273e+02 2.08162518e+02 1.98358823e+02 1.99216465e+02 1.90899726e+02 1.88772609e+02 1.80299560e+02 
        </DataArray>
        <DataArray type="Float64" Name="v">
          -5.75160751e-01 -4.67635936e+00 -4.20927086e+00 -2.01095565e+00 1.13718605e-01 -6.32735010e-01 -1.38379152e+00 -1.05678470e+00 -1.13718605e-01 6.32735010e-01 1.38379152e+00 1.05678470e+00 5.75160750e-01 4.67635936e+00 4.20927086e+00 2.01095565e+00 
        </DataArray>
        <DataArray type="Float64" Name="p">
          8.77596094e+02 6.75908381e+02 4.74220669e+02 2.72532956e+02 8.77596094e+02 6.75908381e+02 4.74220669e+02 2.72532956e+02 8.77596094e+02 6.75908381e+02 4.74220669e+02 2.72532956e+02 8.77596094e+02 6.75908381e+02 4.74220669e+02 2.72532956e+02 
        </DataArray>
      </PointData>
    </Piece>
    <Piece NumberOfPoints="16" NumberOfCells="9">
      <Points>
        <DataArray type="Float64" NumberOfComponents="3" format="ascii">
          3.00000000e+00 5.00000000e+00 0.00000000e+00 
4.00000000e+00 5.00000000e+00 0.00000000e+00 
5.00000000e+00 5.00000000e+00 0.00000000e+00 
6.00000000e+00 5.00000000e+00 0.00000000e+00 
3.00000000e+00 5.33333349e+00 0.00000000e+00 
4.00000000e+00 5.33333349e+00 0.00000000e+00 
5.00000000e+00 5.33333349e+00 0.00000000e+00 
6.00000000e+00 5.33333349e+00 0.00000000e+00 
3.00000000e+00 5.66666651e+00 0.00000000e+00 
4.00000000e+00 5.66666651e+00 0.00000000e+00 
5.00000000e+00 5.66666651e+00 0.00000000e+00 
6.00000000e+00 5.66666651e+00 0.00000000e+00 
3.00000000e+00 6.00000000e+00 0.00000000e+00 
4.00000000e+00 6.00000000e+00 0.00000000e+00 
5.00000000e+00 6.00000000e+00 0.00000000e+00 
6.00000000e+00 6.00000000e+00 0.00000000e+00 

        </DataArray>
      </Points>
      <Cells>
        <DataArray type="Int32" Name="connectivity" format="ascii">
0 1 5 4
4 5 9 8
8 9 13 12
1 2 6 5
5 6 10 9
9 10 14 13
2 3 7 6
6 7 11 10
10 11 15 14

        </DataArray>
        <DataArray type="Int32" Name="offsets" format="ascii">
4 8 12 16 20 24 28 32 36 
        </DataArray>
        <DataArray type="UInt8" Name="types" format="ascii">
9 9 9 9 9 9 9 9 9 
        </DataArray>
      </Cells>
      <PointData>
        <DataArray type="Float64" Name="u">
          1.99216465e+02 1.90899726e+02 1.88772609e+02 1.80299560e+02 1.55720588e+02 1.50779179e+02 1.51120206e+02 1.48011953e+02 9.01722400e+01 9.72539720e+01 1.03162235e+02 1.08345311e+02 0.00000000e+00 4.98963525e+01 5.64655745e+01 7.34256494e+01 
        </DataArray>
        <DataArray type="Float64" Name="v">
          5.75160750e-01 4.67635936e+00 4.20927086e+00 2.01095565e+00 5.54453660e-01 6.94132366e+00 6.54620295e+00 2.38253150e+00 1.43187753e+00 6.35484800e+00 4.83834289e+00 2.24317915e+00 0.00000000e+00 -2.12533936e+00 1.03380106e+00 3.88360499e+00 
        </DataArray>
        <DataArray type="Float64" Name="p">
          7.02365700e+02 5.98746436e+02 4.95127172e+02 3.91507908e+02 2.59265354e+02 3.87691557e+02 5.16117760e+02 6.44543963e+02 -1.83834992e+02 1.76636678e+02 5.37108347e+02 8.97580017e+02 -6.26935339e+02 -3.44182018e+01 5.58098935e+02 1.15061607e+03 
        </DataArray>
      </PointData>
    </Piece>
    <Piece NumberOfPoints="16" NumberOfCells="9">
      <Points>
        <DataArray type="Float64" NumberOfComponents="3" format="ascii">
          3.00000000e+00 6.00000000e+00 0.00000000e+00 
4.00000000e+00 6.00000000e+00 0.00000000e+00 
5.00000000e+00 6.00000000e+00 0.00000000e+00 
6.00000000e+00 6.00000000e+00 0.00000000e+00 
3.00000000e+00 6.33333349e+00 0.00000000e+00 
4.00000000e+00 6.33333349e+00 0.00000000e+00 
5.00000000e+00 6.33333349e+00 0.00000000e+00 
6.00000000e+00 6.33333349e+00 0.00000000e+00 
3.00000000e+00 6.66666651e+00 0.00000000e+00 
4.00000000e+00 6.66666651e+00 0.00000000e+00 
5.00000000e+00 6.66666651e+00 0.00000000e+00 
6.00000000e+00 6.66666651e+00 0.00000000e+00 
3.00000000e+00 7.00000000e+00 0.00000000e+00 
4.00000000e+00 7.00000000e+00 0.00000000e+00 
5.00000000e+00 7.00000000e+00 0.00000000e+00 
6.00000000e+00 7.00000000e+00 0.00000000e+00 

        </DataArray>
      </Points>
      <Cells>
        <DataArray type="Int32" Name="connectivity" format="ascii">
0 1 5 4
4 5 9 8
8 9 13 12
1 2 6 5
5 6 10 9
9 10 14 13
2 3 7 6
6 7 11 10
10 11 15 14

        </DataArray>
        <DataArray type="Int32" Name="offsets" format="ascii">
4 8 12 16 20 24 28 32 36 
        </DataArray>
        <DataArray type="UInt8" Name="types" format="ascii">
9 9 9 9 9 9 9 9 9 
        </DataArray>
      </Cells>
      <PointData>
        <DataArray type="Float64" Name="u">
          0.00000000e+00 4.98963525e+01 5.64655745e+01 7.34256494e+01 0.00000000e+00 1.49808016e+01 2.48902458e+01 4.00389029e+01 0.00000000e+00 -1.08270550e-01 6.28787662e+00 1.52104305e+01 0.00000000e+00 -6.28057508e+00 -4.24207009e+00 -3.04127201e+00 
        </DataArray>
        <DataArray type="Float64" Name="v">
          0.00000000e+00 -2.12533936e+00 1.03380106e+00 3.88360499e+00 0.00000000e+00 -1.27238182e+01 -5.06009536e+00 2.84948316e+00 0.00000000e+00 -1.63402306e+01 -7.80407894e+00 6.57043904e-01 0.00000000e+00 -1.53308117e+01 -9.87638520e+00 -2.48021155e+00 
        </DataArray>
        <DataArray type="Float64" Name="p">
          -5.56295613e+02 -5.49608067e+01 4.46374000e+02 9.47708806e+02 -2.83575790e+02 7.39258422e+01 4.31427475e+02 7.88929107e+02 -1.08559674e+01 2.02812491e+02 4.16480950e+02 6.30149408e+02 2.61863855e+02 3.31699140e+02 4.01534424e+02 4.71369709e+02 
        </DataArray>
      </PointData>
    </Piece>
    <Piece NumberOfPoints="16" NumberOfCells="9">
      <Points>
        <DataArray type="Float64" NumberOfComponents="3" format="ascii">
          3.00000000e+00 7.00000000e+00 0.00000000e+00 
4.00000000e+00 7.00000000e+00 0.00000000e+00 
5.00000000e+00 7.00000000e+00 0.00000000e+00 
6.00000000e+00 7.00000000e+00 0.00000000e+00 
3.00000000e+00 7.33333349e+00 0.00000000e+00 
4.00000000e+00 7.33333349e+00 0.00000000e+00 
5.00000000e+00 7.33333349e+00 0.00000000e+00 
6.00000000e+00 7.33333349e+00 0.00000000e+00 
3.00000000e+00 7.66666651e+00 0.00000000e+00 
4.00000000e+00 7.66666651e+00 0.00000000e+00 
5.00000000e+00 7.66666651e+00 0.00000000e+00 
6.00000000e+00 7.66666651e+00 0.00000000e+00 
3.00000000e+00 8.00000000e+00 0.00000000e+00 
4.00000000e+00 8.00000000e+00 0.00000000e+00 
5.00000000e+00 8.00000000e+00 0.00000000e+00 
6.00000000e+00 8.00000000e+00 0.00000000e+00 

        </DataArray>
      </Points>
      <Cells>
        <DataArray type="Int32" Name="connectivity" format="ascii">
0 1 5 4
4 5 9 8
8 9 13 12
1 2 6 5
5 6 10 9
9 10 14 13
2 3 7 6
6 7 11 10
10 11 15 14

        </DataArray>
        <DataArray type="Int32" Name="offsets" format="ascii">
4 8 12 16 20 24 28 32 36 
        </DataArray>
        <DataArray type="UInt8" Name="types" format="ascii">
9 9 9 9 9 9 9 9 9 
        </DataArray>
      </Cells>
      <PointData>
        <DataArray type="Float64" Name="u">
          0.00000000e+00 -6.28057508e+00 -4.24207009e+00 -3.04127201e+00 0.00000000e+00 -8.94336592e+00 -1.05451417e+01 -1.42361997e+01 0.00000000e+00 -9.58672251e+00 -1.33392108e+01 -2.00566682e+01 0.00000000e+00 -8.88105063e+00 -1.32580690e+01 -2.11045928e+01 
        </DataArray>
        <DataArray type="Float64" Name="v">
          0.00000000e+00 -1.53308117e+01 -9.87638520e+00 -2.48021155e+00 0.00000000e+00 -1.26082481e+01 -9.16878277e+00 -3.69107503e+00 0.00000000e+00 -9.72366954e+00 -7.52037061e+00 -3.65150670e+00 0.00000000e+00 -6.00036036e+00 -5.00444809e+00 -2.74588758e+00 
        </DataArray>
        <DataArray type="Float64" Name="p">
          2.30369403e+02 3.43118299e+02 4.55867196e+02 5.68616092e+02 3.07949274e+02 4.11224952e+02 5.14500630e+02 6.17776308e+02 3.85529145e+02 4.79331604e+02 5.73134064e+02 6.66936523e+02 4.63109015e+02 5.47438256e+02 6.31767498e+02 7.16096739e+02 
        </DataArray>
      </PointData>
    </Piece>
    <Piece NumberOfPoints="16" NumberOfCells="9">
      <Points>
        <DataArray type="Float64" NumberOfComponents="3" format="ascii">
          3.00000000e+00 8.00000000e+00 0.00000000e+00 
4.00000000e+00 8.00000000e+00 0.00000000e+00 
5.00000000e+00 8.00000000e+00 0.00000000e+00 
6.00000000e+00 8.00000000e+00 0.00000000e+00 
3.00000000e+00 8.33333302e+00 0.00000000e+00 
4.00000000e+00 8.33333302e+00 0.00000000e+00 
5.00000000e+00 8.33333302e+00 0.00000000e+00 
6.00000000e+00 8.33333302e+00 0.00000000e+00 
3.00000000e+00 8.66666698e+00 0.00000000e+00 
4.00000000e+00 8.66666698e+00 0.00000000e+00 
5.00000000e+00 8.66666698e+00 0.00000000e+00 
6.00000000e+00 8.66666698e+00 0.00000000e+00 
3.00000000e+00 9.00000000e+00 0.00000000e+00 
4.00000000e+00 9.00000000e+00 0.00000000e+00 
5.00000000e+00 9.00000000e+00 0.00000000e+00 
6.00000000e+00 9.00000000e+00 0.00000000e+00 

        </DataArray>
      </Points>
      <Cells>
        <DataArray type="Int32" Name="connectivity" format="ascii">
0 1 5 4
4 5 9 8
8 9 13 12
1 2 6 5
5 6 10 9
9 10 14 13
2 3 7 6
6 7 11 10
10 11 15 14

        </DataArray>
        <DataArray type="Int32" Name="offsets" format="ascii">
4 8 12 16 20 24 28 32 36 
        </DataArray>
        <DataArray type="UInt8" Name="types" format="ascii">
9 9 9 9 9 9 9 9 9 
        </DataArray>
      </Cells>
      <PointData>
        <DataArray type="Float64" Name="u">
          0.00000000e+00 -8.88105063e+00 -1.32580690e+01 -2.11045928e+01 0.00000000e+00 -7.07932213e+00 -1.07187018e+01 -1.79441300e+01 0.00000000e+00 -4.16151095e+00 -6.12639312e+00 -1.07813187e+01 0.00000000e+00 0.00000000e+00 0.00000000e+00 0.00000000e+00 
        </DataArray>
        <DataArray type="Float64" Name="v">
          0.00000000e+00 -6.00036036e+00 -5.00444809e+00 -2.74588758e+00 0.00000000e+00 -2.78920683e+00 -2.45260894e+00 -1.35766807e+00 0.00000000e+00 -9.49294540e-01 -9.01153230e-01 -5.17071211e-01 0.00000000e+00 0.00000000e+00 0.00000000e+00 0.00000000e+00 
        </DataArray>
        <DataArray type="Float64" Name="p">
          4.52722673e+02 5.44529109e+02 6.36335546e+02 7.28141983e+02 4.36218648e+02 5.29991343e+02 6.23764038e+02 7.17536733e+02 4.19714624e+02 5.15453577e+02 6.11192530e+02 7.06931484e+02 4.03210599e+02 5.00915811e+02 5.98621022e+02 6.96326234e+02 
        </DataArray>
      </PointData>
    </Piece>
    <Piece NumberOfPoints="16" NumberOfCells="9">
      <Points>
        <DataArray type="Float64" NumberOfComponents="3" format="ascii">
          6.00000000e+00 0.00000000e+00 0.00000000e+00 
7.00000000e+00 0.00000000e+00 0.00000000e+00 
8.00000000e+00 0.00000000e+00 0.00000000e+00 
9.00000000e+00 0.00000000e+00 0.00000000e+00 
6.00000000e+00 3.33333343e-01 0.00000000e+00 
7.00000000e+00 3.33333343e-01 0.00000000e+00 
8.00000000e+00 3.33333343e-01 0.00000000e+00 
9.00000000e+00 3.33333343e-01 0.00000000e+00 
6.00000000e+00 6.66666687e-01 0.00000000e+00 
7.00000000e+00 6.66666687e-01 0.00000000e+00 
8.00000000e+00 6.66666687e-01 0.00000000e+00 
9.00000000e+00 6.66666687e-01 0.00000000e+00 
6.00000000e+00 1.00000000e+00 0.00000000e+00 
7.00000000e+00 1.00000000e+00 0.00000000e+00 
8.00000000e+00 1.00000000e+00 0.00000000e+00 
9.00000000e+00 1.00000000e+00 0.00000000e+00 

        </DataArray>
      </Points>
      <Cells>
        <DataArray type="Int32" Name="connectivity" format="ascii">
0 1 5 4
4 5 9 8
8 9 13 12
1 2 6 5
5 6 10 9
9 10 14 13
2 3 7 6
6 7 11 10
10 11 15 14

        </DataArray>
        <DataArray type="Int32" Name="offsets" format="ascii">
4 8 12 16 20 24 28 32 36 
        </DataArray>
        <DataArray type="UInt8" Name="types" format="ascii">
9 9 9 9 9 9 9 9 9 
        </DataArray>
      </Cells>
      <PointData>
        <DataArray type="Float64" Name="u">
          0.00000000e+00 0.00000000e+00 0.00000000e+00 0.00000000e+00 -1.07813187e+01 -1.34415702e+01 -1.30916773e+01 -1.40903521e+01 -1.79441300e+01 -2.13451586e+01 -2.05761483e+01 -2.17305243e+01 -2.11045928e+01 -2.38797605e+01 -2.24255959e+01 -2.30433255e+01 
        </DataArray>
        <DataArray type="Float64" Name="v">