<?xml version="1.0"?>
<VTKFile type="UnstructuredGrid" version="0.1" byte_order="LittleEndian">
  <UnstructuredGrid>
    <Piece NumberOfPoints="16" NumberOfCells="9">
      <Points>
        <DataArray type="Float64" NumberOfComponents="3" format="ascii">
          0.00000000e+00 3.00000000e+00 0.00000000e+00 
1.00000000e+00 3.00000000e+00 0.00000000e+00 
2.00000000e+00 3.00000000e+00 0.00000000e+00 
3.00000000e+00 3.00000000e+00 0.00000000e+00 
0.00000000e+00 3.33333325e+00 0.00000000e+00 
1.00000000e+00 3.33333325e+00 0.00000000e+00 
2.00000000e+00 3.33333325e+00 0.00000000e+00 
3.00000000e+00 3.33333325e+00 0.00000000e+00 
0.00000000e+00 3.66666675e+00 0.00000000e+00 
1.00000000e+00 3.66666675e+00 0.00000000e+00 
2.00000000e+00 3.66666675e+00 0.00000000e+00 
3.00000000e+00 3.66666675e+00 0.00000000e+00 
0.00000000e+00 4.00000000e+00 0.00000000e+00 
1.00000000e+00 4.00000000e+00 0.00000000e+00 
2.00000000e+00 4.00000000e+00 0.00000000e+00 
3.00000000e+00 4.00000000e+00 0.00000000e+00 

        </DataArray>
      </Points>
      <Cells>
        <DataArray type="Int32" Name="connectivity" format="ascii">
0 1 5 4
4 5 9 8
8 9 13 12
1 2 6 5
5 6 10 9
9 10 14 13
2 3 7 6
6 7 11 10
10 11 15 14

        </DataArray>
        <DataArray type="Int32" Name="offsets" format="ascii">
4 8 12 16 20 24 28 32 36 
        </DataArray>
        <DataArray type="UInt8" Name="types" format="ascii">
9 9 9 9 9 9 9 9 9 
        </DataArray>
      </Cells>
      <PointData>
        <DataArray type="Float64" Name="u">
          0.00000000e+00 0.00000000e+00 0.00000000e+00 0.00000000e+00 8.88888889e+01 9.39354249e+01 9.17961472e+01 1.04015420e+02 1.55555556e+02 1.59658428e+02 1.58785707e+02 1.66380409e+02 2.00000000e+02 2.02369676e+02 2.02275861e+02 2.07122354e+02 
        </DataArray>
        <DataArray type="Float64" Name="v">
          0.00000000e+00 0.00000000e+00 0.00000000e+00 0.00000000e+00 0.00000000e+00 -1.38685558e+00 -2.04868855e+00 -4.35423029e+00 0.00000000e+00 -1.00341032e+00 -2.48021842e+00 -4.33373674e+00 0.00000000e+00 -2.58760614e+00 -4.50995391e+00 -7.03282285e+00 
        </DataArray>
        <DataArray type="Float64" Name="p">
          -8.95052456e+02 -1.74377801e+03 -2.59250356e+03 -3.44122911e+03 -8.63325278e+02 -1.69656358e+03 -2.52980189e+03 -3.36304019e+03 -8.31598100e+02 -1.64934915e+03 -2.46710021e+03 -3.28485126e+03 -7.99870922e+02 -1.60213473e+03 -2.40439853e+03 -3.20666234e+03 
        </DataArray>
      </PointData>
    </Piece>
    <Piece NumberOfPoints="16" NumberOfCells="9">
      <Points>
        <DataArray type="Float64" NumberOfComponents="3" format="ascii">
          0.00000000e+00 4.00000000e+00 0.00000000e+00 
1.00000000e+00 4.00000000e+00 0.00000000e+00 
2.00000000e+00 4.00000000e+00 0.00000000e+00 
3.00000000e+00 4.00000000e+00 0.00000000e+00 
0.00000000e+00 4.33333349e+00 0.00000000e+00 
1.00000000e+00 4.33333349e+00 0.00000000e+00 
2.00000000e+00 4.33333349e+00 0.00000000e+00 
3.00000000e+00 4.33333349e+00 0.00000000e+00 
0.00000000e+00 4.66666651e+00 0.00000000e+00 
1.00000000e+00 4.66666651e+00 0.00000000e+00 
2.00000000e+00 4.66666651e+00 0.00000000e+00 
3.00000000e+00 4.66666651e+00 0.00000000e+00 
0.00000000e+00 5.00000000e+00 0.00000000e+00 
1.00000000e+00 5.00000000e+00 0.00000000e+00 
2.00000000e+00 5.00000000e+00 0.00000000e+00 
3.00000000e+00 5.00000000e+00 0.00000000e+00 

        </DataArray>
      </Points>
      <Cells>
        <DataArray type="Int32" Name="connectivity" format="ascii">
0 1 5 4
4 5 9 8
8 9 13 12
1 2 6 5
5 6 10 9
9 10 14 13
2 3 7 6
6 7 11 10
10 11 15 14

        </DataArray>
        <DataArray type="Int32" Name="offsets" format="ascii">
4 8 12 16 20 24 28 32 36 
        </DataArray>
        <DataArray type="UInt8" Name="types" format="ascii">
9 9 9 9 9 9 9 9 9 
        </DataArray>
      </Cells>
      <PointData>
        <DataArray type="Float64" Name="u">
          2.00000000e+02 2.02369676e+02 2.02275861e+02 2.07122354e+02 2.22222222e+02 2.23034058e+02 2.22931063e+02 2.24244683e+02 2.22222222e+02 2.21271942e+02 2.21037542e+02 2.19213321e+02 2.00000000e+02 1.97518927e+02 1.97401003e+02 1.92279511e+02 
        </DataArray>
        <DataArray type="Float64" Name="v">
          0.00000000e+00 -2.58760614e+00 -4.50995391e+00 -7.03282285e+00 0.00000000e+00 -2.98041990e+00 -5.36246042e+00 -7.16765108e+00 0.00000000e+00 -2.99959244e+00 -5.29308877e+00 -7.25360889e+00 0.00000000e+00 -2.44733939e+00 -4.53866457e+00 -6.18167251e+00 
        </DataArray>
        <DataArray type="Float64" Name="p">
          -7.73780564e+02 -1.57268732e+03 -2.37159407e+03 -3.17050082e+03 -5.40584051e+02 -1.37436338e+03 -2.20814270e+03 -3.04192203e+03 -3.07387539e+02 -1.17603944e+03 -2.04469133e+03 -2.91334323e+03 -7.41910261e+01 -9.77715495e+02 -1.88123996e+03 -2.78476443e+03 
        </DataArray>
      </PointData>
    </Piece>
    <Piece NumberOfPoints="16" NumberOfCells="9">
      <Points>
        <DataArray type="Float64" NumberOfComponents="3" format="ascii">
          0.00000000e+00 5.00000000e+00 0.00000000e+00 
1.00000000e+00 5.00000000e+00 0.00000000e+00 
2.00000000e+00 5.00000000e+00 0.00000000e+00 
3.00000000e+00 5.00000000e+00 0.00000000e+00 
0.00000000e+00 5.33333349e+00 0.00000000e+00 
1.00000000e+00 5.33333349e+00 0.00000000e+00 
2.00000000e+00 5.33333349e+00 0.00000000e+00 
3.00000000e+00 5.33333349e+00 0.00000000e+00 
0.00000000e+00 5.66666651e+00 0.00000000e+00 
1.00000000e+00 5.66666651e+00 0.00000000e+00 
2.00000000e+00 5.66666651e+00 0.00000000e+00 
3.00000000e+00 5.66666651e+00 0.00000000e+00 
0.00000000e+00 6.00000000e+00 0.00000000e+00 
1.00000000e+00 6.00000000e+00 0.00000000e+00 
2.00000000e+00 6.00000000e+00 0.00000000e+00 
3.00000000e+00 6.00000000e+00 0.00000000e+00 

        </DataArray>
      </Points>
      <Cells>
        <DataArray type="Int32" Name="connectivity" format="ascii">
0 1 5 4
4 5 9 8
8 9 13 12
1 2 6 5
5 6 10 9
9 10 14 13
2 3 7 6
6 7 11 10
10 11 15 14

        </DataArray>
        <DataArray type="Int32" Name="offsets" format="ascii">
4 8 12 16 20 24 28 32 36 
        </DataArray>
        <DataArray type="UInt8" Name="types" format="ascii">
9 9 9 9 9 9 9 9 9 
        </DataArray>
      </Cells>
      <PointData>
        <DataArray type="Float64" Name="u">
          2.00000000e+02 1.97518927e+02 1.97401003e+02 1.92279511e+02 1.55555556e+02 1.51822632e+02 1.52173036e+02 1.44551281e+02 8.88888889e+01 8.48001193e+01 8.57102556e+01 7.53269756e+01 0.00000000e+00 0.00000000e+00 0.00000000e+00 0.00000000e+00 
        </DataArray>
        <DataArray type="Float64" Name="v">
          0.00000000e+00 -2.44733939e+00 -4.53866457e+00 -6.18167251e+00 0.00000000e+00 -9.84263911e-01 -2.35984647e+00 -3.89576096e+00 0.00000000e+00 -1.17220647e+00 -2.23055329e+00 -2.53311624e+00 0.00000000e+00 0.00000000e+00 0.00000000e+00 0.00000000e+00 
        </DataArray>
        <DataArray type="Float64" Name="p">
          -5.80089626e+01 -9.49270223e+02 -1.84053148e+03 -2.73179274e+03 -1.45123330e+01 -9.01658127e+02 -1.78880392e+03 -2.67594972e+03 2.89842965e+01 -8.54046031e+02 -1.73707636e+03 -2.62010669e+03 7.24809260e+01 -8.06433935e+02 -1.68534880e+03 -2.56426366e+03 
        </DataArray>
      </PointData>
    </Piece>
    <Piece NumberOfPoints="16" NumberOfCells="9">
      <Points>
        <DataArray type="Float64" NumberOfComponents="3" format="ascii">
          3.00000000e+00 0.00000000e+00 0.00000000e+00 
4.00000000e+00 0.00000000e+00 0.00000000e+00 
5.00000000e+00 0.00000000e+00 0.00000000e+00 
6.00000000e+00 0.00000000e+00 0.00000000e+00 
3.00000000e+00 3.33333343e-01 0.00000000e+00 
4.00000000e+00 3.33333343e-01 0.00000000e+00 
5.00000000e+00 3.33333343e-01 0.00000000e+00 
6.00000000e+00 3.33333343e-01 0.00000000e+00 
3.00000000e+00 6.66666687e-01 0.00000000e+00 
4.00000000e+00 6.66666687e-01 0.00000000e+00 
5.00000000e+00 6.66666687e-01 0.00000000e+00 
6.00000000e+00 6.66666687e-01 0.00000000e+00 
3.00000000e+00 1.00000000e+00 0.00000000e+00 
4.00000000e+00 1.00000000e+00 0.00000000e+00 
5.00000000e+00 1.00000000e+00 0.00000000e+00 
6.00000000e+00 1.00000000e+00 0.00000000e+00 

        </DataArray>
      </Points>
      <Cells>
        <DataArray type="Int32" Name="connectivity" format="ascii">
0 1 5 4
4 5 9 8
8 9 13 12
1 2 6 5
5 6 10 9
9 10 14 13
2 3 7 6
6 7 11 10
10 11 15 14

        </DataArray>
        <DataArray type="Int32" Name="offsets" format="ascii">
4 8 12 16 20 24 28 32 36 
        </DataArray>
        <DataArray type="UInt8" Name="types" format="ascii">
9 9 9 9 9 9 9 9 9 
        </DataArray>
      </Cells>
      <PointData>
        <DataArray type="Float64" Name="u">
          0.00000000e+00 0.00000000e+00 0.00000000e+00 0.00000000e+00 0.00000000e+00 -3.03967558e+00 -5.59418050e+00 -9.49454583e+00 0.00000000e+00 -5.46249770e+00 -1.01817431e+01 -1.76782635e+01 0.00000000e+00 -7.05192095e+00 -1.30279857e+01 -2.15503494e+01 
        </DataArray>
        <DataArray type="Float64" Name="v">
          0.00000000e+00 0.00000000e+00 0.00000000e+00 0.00000000e+00 0.00000000e+00 7.86732152e-01 7.46720491e-01 6.11418038e-01 0.00000000e+00 2.35270888e+00 2.27755022e+00 1.68291413e+00 0.00000000e+00 5.14173516e+00 5.22251097e+00 3.26352077e+00 
        </DataArray>
        <DataArray type="Float64" Name="p">
          -4.06026673e+03 -4.03868232e+03 -4.01709790e+03 -3.99551349e+03 -4.05442203e+03 -4.03163496e+03 -4.00884789e+03 -3.98606082e+03 -4.04857732e+03 -4.02458760e+03 -4.00059787e+03 -3.97660815e+03 -4.04273261e+03 -4.01754024e+03 -3.99234786e+03 -3.96715548e+03 
        </DataArray>
      </PointData>
    </Piece>
    <Piece NumberOfPoints="16" NumberOfCells="9">
      <Points>
        <DataArray type="Float64" NumberOfComponents="3" format="ascii">
          3.00000000e+00 1.00000000e+00 0.00000000e+00 
4.00000000e+00 1.00000000e+00 0.00000000e+00 
5.00000000e+00 1.00000000e+00 0.00000000e+00 
6.00000000e+00 1.00000000e+00 0.00000000e+00 
3.00000000e+00 1.33333337e+00 0.00000000e+00 
4.00000000e+00 1.33333337e+00 0.00000000e+00 
5.00000000e+00 1.33333337e+00 0.00000000e+00 
6.00000000e+00 1.33333337e+00 0.00000000e+00 
3.00000000e+00 1.66666663e+00 0.00000000e+00 
4.00000000e+00 1.66666663e+00 0.00000000e+00 
5.00000000e+00 1.66666663e+00 0.00000000e+00 
6.00000000e+00 1.66666663e+00 0.00000000e+00 
3.00000000e+00 2.00000000e+00 0.00000000e+00 
4.00000000e+00 2.00000000e+00 0.00000000e+00 
5.00000000e+00 2.00000000e+00 0.00000000e+00 
6.00000000e+00 2.00000000e+00 0.00000000e+00 

        </DataArray>
      </Points>
      <Cells>
        <DataArray type="Int32" Name="connectivity" format="ascii">
0 1 5 4
4 5 9 8
8 9 13 12
1 2 6 5
5 6 10 9
9 10 14 13
2 3 7 6
6 7 11 10
10 11 15 14

        </DataArray>
        <DataArray type="Int32" Name="offsets" format="ascii">
4 8 12 16 20 24 28 32 36 
        </DataArray>
        <DataArray type="UInt8" Name="types" format="ascii">
9 9 9 9 9 9 9 9 9 
        </DataArray>
      </Cells>
      <PointData>
        <DataArray type="Float64" Name="u">
          0.00000000e+00 -7.05192095e+00 -1.30279857e+01 -2.15503494e+01 0.00000000e+00 -7.63972770e+00 -1.32835966e+01 -2.00390542e+01 0.00000000e+00 -7.09155260e+00 -1.04464814e+01 -1.27320198e+01 0.00000000e+00 -4.97416129e+00 -3.85619522e+00 9.68413741e-01 
        </DataArray>
        <DataArray type="Float64" Name="v">
          0.00000000e+00 5.14173516e+00 5.22251097e+00 3.26352077e+00 0.00000000e+00 8.47821363e+00 8.04307851e+00 4.66001006e+00 0.00000000e+00 1.10576336e+01 9.81409599e+00 4.69023845e+00 0.00000000e+00 1.34953710e+01 1.02187920e+01 2.84548919e+00 
        </DataArray>
        <DataArray type="Float64" Name="p">
          -4.03488810e+03 -4.01634572e+03 -3.99780334e+03 -3.97926096e+03 -4.06094112e+03 -4.05261650e+03 -4.04429187e+03 -4.03596725e+03 -4.08699414e+03 -4.08888728e+03 -4.09078041e+03 -4.09267354e+03 -4.11304716e+03 -4.12515805e+03 -4.13726894e+03 -4.14937984e+03 
        </DataArray>
      </PointData>
    </Piece>
    <Piece NumberOfPoints="16" NumberOfCells="9">
      <Points>
        <DataArray type="Float64" NumberOfComponents="3" format="ascii">
          3.00000000e+00 2.00000000e+00 0.00000000e+00 
4.00000000e+00 2.00000000e+00 0.00000000e+00 
5.00000000e+00 2.00000000e+00 0.00000000e+00 
6.00000000e+00 2.00000000e+00 0.00000000e+00 
3.00000000e+00 2.33333325e+00 0.00000000e+00 
4.00000000e+00 2.33333325e+00 0.00000000e+00 
5.00000000e+00 2.33333325e+00 0.00000000e+00 
6.00000000e+00 2.33333325e+00 0.00000000e+00 
3.00000000e+00 2.66666675e+00 0.00000000e+00 
4.00000000e+00 2.66666675e+00 0.00000000e+00 
5.00000000e+00 2.66666675e+00 0.00000000e+00 
6.00000000e+00 2.66666675e+00 0.00000000e+00 
3.00000000e+00 3.00000000e+00 0.00000000e+00 
4.00000000e+00 3.00000000e+00 0.00000000e+00 
5.00000000e+00 3.00000000e+00 0.00000000e+00 
6.00000000e+00 3.00000000e+00 0.00000000e+00 

        </DataArray>
      </Points>
      <Cells>
        <DataArray type="Int32" Name="connectivity" format="ascii">
0 1 5 4
4 5 9 8
8 9 13 12
1 2 6 5
5 6 10 9
9 10 14 13
2 3 7 6
6 7 11 10
10 11 15 14

        </DataArray>
        <DataArray type="Int32" Name="offsets" format="ascii">
4 8 12 16 20 24 28 32 36 
        </DataArray>
        <DataArray type="UInt8" Name="types" format="ascii">
9 9 9 9 9 9 9 9 9 
        </DataArray>
      </Cells>
      <PointData>
        <DataArray type="Float64" Name="u">
          0.00000000e+00 -4.97416129e+00 -3.85619522e+00 9.68413741e-01 0.00000000e+00 -3.59911523e-02 7.03647252e+00 2.34797382e+01 0.00000000e+00 1.44942006e+01 2.86982971e+01 5.48154309e+01 0.00000000e+00 5.62262196e+01 7.21202075e+01 9.95786861e+01 
        </DataArray>
        <DataArray type="Float64" Name="v">
          0.00000000e+00 1.34953710e+01 1.02187920e+01 2.84548919e+00 0.00000000e+00 1.44529861e+01 6.70783737e+00 -3.08440658e+00 0.00000000e+00 1.07947097e+01 2.74422171e+00 -7.64157193e+00 0.00000000e+00 -1.19100177e+00 -7.06807359e+00 -1.30456646e+01 
        </DataArray>
        <DataArray type="Float64" Name="p">
          -4.08551662e+03 -4.13408200e+03 -4.18264737e+03 -4.23121274e+03 -4.23549176e+03 -4.19085684e+03 -4.14622193e+03 -4.10158701e+03 -4.38546689e+03 -4.24763169e+03 -4.10979649e+03 -3.97196129e+03 -4.53544202e+03 -4.30440653e+03 -4.07337105e+03 -3.84233556e+03 
        </DataArray>
      </PointData>
    </Piece>
    <Piece NumberOfPoints="16" NumberOfCells="9">
      <Points>
        <DataArray type="Float64" NumberOfComponents="3" format="ascii">
          3.00000000e+00 3.00000000e+00 0.00000000e+00 
4.00000000e+00 3.00000000e+00 0.00000000e+00 
5.00000000e+00 3.00000000e+00 0.00000000e+00 
6.00000000e+00 3.00000000e+00 0.00000000e+00 
3.00000000e+00 3.33333325e+00 0.00000000e+00 
4.00000000e+00 3.33333325e+00 0.00000000e+00 
5.00000000e+00 3.33333325e+00 0.00000000e+00 
6.00000000e+00 3.33333325e+00 0.00000000e+00 
3.00000000e+00 3.66666675e+00 0.00000000e+00 
4.00000000e+00 3.66666675e+00 0.00000000e+00 
5.00000000e+00 3.66666675e+00 0.00000000e+00 
6.00000000e+00 3.66666675e+00 0.00000000e+00 
3.00000000e+00 4.00000000e+00 0.00000000e+00 
4.00000000e+00 4.00000000e+00 0.00000000e+00 
5.00000000e+00 4.00000000e+00 0.00000000e+00 
6.00000000e+00 4.00000000e+00 0.00000000e+00 

        </DataArray>
      </Points>
      <Cells>
        <DataArray type="Int32" Name="connectivity" format="ascii">
0 1 5 4
4 5 9 8
8 9 13 12
1 2 6 5
5 6 10 9
9 10 14 13
2 3 7 6
6 7 11 10
10 11 15 14

        </DataArray>
        <DataArray type="Int32" Name="offsets" format="ascii">
4 8 12 16 20 24 28 32 36 
        </DataArray>
        <DataArray type="UInt8" Name="types" format="ascii">
9 9 9 9 9 9 9 9 9 
        </DataArray>
      </Cells>
      <PointData>
        <DataArray type="Float64" Name="u">
          0.00000000e+00 5.62262196e+01 7.21202075e+01 9.95786861e+01 1.04015420e+02 1.14295394e+02 1.29295498e+02 1.44863010e+02 1.66380409e+02 1.69032250e+02 1.77072253e+02 1.83913488e+02 2.07122354e+02 2.04265051e+02 2.08397726e+02 2.06916474e+02 
        </DataArray>
        <DataArray type="Float64" Name="v">
          0.00000000e+00 -1.19100177e+00 -7.06807359e+00 -1.30456646e+01 -4.35423029e+00 -1.27591093e+01 -1.59614135e+01 -1.70736431e+01 -4.33373674e+00 -1.23419308e+01 -1.68310622e+01 -1.88825466e+01 -7.03282285e+00 -1.41404715e+01 -1.88959695e+01 -2.31856825e+01 
        </DataArray>
        <DataArray type="Float64" Name="p">
          -4.68578062e+03 -4.38823646e+03 -4.09069230e+03 -3.79314813e+03 -4.21087713e+03 -4.07305432e+03 -3.93523150e+03 -3.79740868e+03 -3.73597364e+03 -3.75787217e+03 -3.77977070e+03 -3.80166923e+03 -3.26107015e+03 -3.44269002e+03 -3.62430990e+03 -3.80592977e+03 
        </DataArray>
      </PointData>
    </Piece>
    <Piece NumberOfPoints="16" NumberOfCells="9">
      <Points>
        <DataArray type="Float64" NumberOfComponents="3" format="ascii">
          3.00000000e+00 4.00000000e+00 0.00000000e+00 
4.00000000e+00 4.00000000e+00 0.00000000e+00 
5.00000000e+00 4.00000000e+00 0.00000000e+00 
6.00000000e+00 4.00000000e+00 0.00000000e+00 
3.00000000e+00 4.33333349e+00 0.00000000e+00 
4.00000000e+00 4.33333349e+00 0.00000000e+00 
5.00000000e+00 4.33333349e+00 0.00000000e+00 
6.00000000e+00 4.33333349e+00 0.00000000e+00 
3.00000000e+00 4.66666651e+00 0.00000000e+00 
4.00000000e+00 4.66666651e+00 0.00000000e+00 
5.00000000e+00 4.66666651e+00 0.00000000e+00 
6.00000000e+00 4.66666651e+00 0.00000000e+00 
3.00000000e+00 5.00000000e+00 0.00000000e+00 
4.00000000e+00 5.00000000e+00 0.00000000e+00 
5.00000000e+00 5.00000000e+00 0.00000000e+00 
6.00000000e+00 5.00000000e+00 0.00000000e+00 

        </DataArray>
      </Points>
      <Cells>
        <DataArray type="Int32" Name="connectivity" format="ascii">
0 1 5 4
4 5 9 8
8 9 13 12
1 2 6 5
5 6 10 9
9 10 14 13
2 3 7 6
6 7 11 10
10 11 15 14

        </DataArray>
        <DataArray type="Int32" Name="offsets" format="ascii">
4 8 12 16 20 24 28 32 36 
        </DataArray>
        <DataArray type="UInt8" Name="types" format="ascii">
9 9 9 9 9 9 9 9 9 
        </DataArray>
      </Cells>
      <PointData>
        <DataArray type="Float64" Name="u">
          2.07122354e+02 2.04265051e+02 2.08397726e+02 2.06916474e+02 2.24244683e+02 2.19228836e+02 2.17640433e+02 2.10705398e+02 2.19213321e+02 2.11333502e+02 2.05813248e+02 1.93608784e+02 1.92279511e+02 1.83086439e+02 1.74818740e+02 1.59727173e+02 
        </DataArray>
        <DataArray type="Float64" Name="v">
          -7.03282285e+00 -1.41404715e+01 -1.88959695e+01 -2.31856825e+01 -7.16765108e+00 -1.19932858e+01 -1.73805048e+01 -2.25521158e+01 -7.25360889e+00 -1.17795347e+01 -1.59098370e+01 -2.06243159e+01 -6.18167251e+00 -7.47224070e+00 -1.14502902e+01 -1.63153345e+01 
        </DataArray>
        <DataArray type="Float64" Name="p">
          -3.14177715e+03 -3.33955687e+03 -3.53733658e+03 -3.73511629e+03 -2.80318591e+03 -2.97722650e+03 -3.15126709e+03 -3.32530769e+03 -2.46459466e+03 -2.61489614e+03 -2.76519761e+03 -2.91549908e+03 -2.12600342e+03 -2.25256577e+03 -2.37912812e+03 -2.50569048e+03 
        </DataArray>
      </PointData>
    </Piece>
    <Piece NumberOfPoints="16" NumberOfCells="9">
      <Points>
        <DataArray type="Float64" NumberOfComponents="3" format="ascii">
          3.00000000e+00 5.00000000e+00 0.00000000e+00 
4.00000000e+00 5.00000000e+00 0.00000000e+00 
5.00000000e+00 5.00000000e+00 0.00000000e+00 
6.00000000e+00 5.00000000e+00 0.00000000e+00 
3.00000000e+00 5.33333349e+00 0.00000000e+00 
4.00000000e+00 5.33333349e+00 0.00000000e+00 
5.00000000e+00 5.33333349e+00 0.00000000e+00 
6.00000000e+00 5.33333349e+00 0.00000000e+00 
3.00000000e+00 5.66666651e+00 0.00000000e+00 
4.00000000e+00 5.66666651e+00 0.00000000e+00 
5.00000000e+00 5.66666651e+00 0.00000000e+00 
6.00000000e+00 5.66666651e+00 0.00000000e+00 
3.00000000e+00 6.00000000e+00 0.00000000e+00 
4.00000000e+00 6.00000000e+00 0.00000000e+00 
5.00000000e+00 6.00000000e+00 0.00000000e+00 
6.00000000e+00 6.00000000e+00 0.00000000e+00 

        </DataArray>
      </Points>
      <Cells>
        <DataArray type="Int32" Name="connectivity" format="ascii">
0 1 5 4
4 5 9 8
8 9 13 12
1 2 6 5
5 6 10 9
9 10 14 13
2 3 7 6
6 7 11 10
10 11 15 14

        </DataArray>
        <DataArray type="Int32" Name="offsets" format="ascii">
4 8 12 16 20 24 28 32 36 
        </DataArray>
        <DataArray type="UInt8" Name="types" format="ascii">
9 9 9 9 9 9 9 9 9 
        </DataArray>
      </Cells>
      <PointData>
        <DataArray type="Float64" Name="u">
          1.92279511e+02 1.83086439e+02 1.74818740e+02 1.59727173e+02 1.44551281e+02 1.34875948e+02 1.26363293e+02 1.12677665e+02 7.53269756e+01 7.56722535e+01 7.13278620e+01 6.58460053e+01 0.00000000e+00 3.07946815e+01 2.93123272e+01 3.56040311e+01 
        </DataArray>
        <DataArray type="Float64" Name="v">
          -6.18167251e+00 -7.47224070e+00 -1.14502902e+01 -1.63153345e+01 -3.89576096e+00 -2.94718348e+00 -5.44538735e+00 -1.04116163e+01 -2.53311624e+00 -2.87795589e+00 -6.23986969e+00 -8.69211715e+00 0.00000000e+00 -6.72312454e+00 -5.10186962e+00 -3.45226194e+00 
        </DataArray>
        <DataArray type="Float64" Name="p">
          -2.17707855e+03 -2.23671713e+03 -2.29635570e+03 -2.35599427e+03 -2.26861138e+03 -2.23683127e+03 -2.20505116e+03 -2.17327104e+03 -2.36014422e+03 -2.23694542e+03 -2.11374661e+03 -1.99054781e+03 -2.45167705e+03 -2.23705956e+03 -2.02244207e+03 -1.80782458e+03 
        </DataArray>
      </PointData>
    </Piece>
    <Piece NumberOfPoints="16" NumberOfCells="9">
      <Points>
        <DataArray type="Float64" NumberOfComponents="3" format="ascii">
          3.00000000e+00 6.00000000e+00 0.00000000e+00 
4.00000000e+00 6.00000000e+00 0.00000000e+00 
5.00000000e+00 6.00000000e+00 0.00000000e+00 
6.00000000e+00 6.00000000e+00 0.00000000e+00 
3.00000000e+00 6.33333349e+00 0.00000000e+00 
4.00000000e+00 6.33333349e+00 0.00000000e+00 
5.00000000e+00 6.33333349e+00 0.00000000e+00 
6.00000000e+00 6.33333349e+00 0.00000000e+00 
3.00000000e+00 6.66666651e+00 0.00000000e+00 
4.00000000e+00 6.66666651e+00 0.00000000e+00 
5.00000000e+00 6.66666651e+00 0.00000000e+00 
6.00000000e+00 6.66666651e+00 0.00000000e+00 
3.00000000e+00 7.00000000e+00 0.00000000e+00 
4.00000000e+00 7.00000000e+00 0.00000000e+00 
5.00000000e+00 7.00000000e+00 0.00000000e+00 
6.00000000e+00 7.00000000e+00 0.00000000e+00 

        </DataArray>
      </Points>
      <Cells>
        <DataArray type="Int32" Name="connectivity" format="ascii">
0 1 5 4
4 5 9 8
8 9 13 12
1 2 6 5
5 6 10 9
9 10 14 13
2 3 7 6
6 7 11 10
10 11 15 14

        </DataArray>
        <DataArray type="Int32" Name="offsets" format="ascii">
4 8 12 16 20 24 28 32 36 
        </DataArray>
        <DataArray type="UInt8" Name="types" format="ascii">
9 9 9 9 9 9 9 9 9 
        </DataArray>
      </Cells>
      <PointData>
        <DataArray type="Float64" Name="u">
          0.00000000e+00 3.07946815e+01 2.93123272e+01 3.56040311e+01 0.00000000e+00 5.38102839e+00 7.52492156e+00 1.25114273e+01 0.00000000e+00 -3.02880527e+00 -2.79680696e+00 -1.82184981e+00 0.00000000e+00 -5.70151726e+00 -7.70522484e+00 -1.03819352e+01 
        </DataArray>
        <DataArray type="Float64" Name="v">
          0.00000000e+00 -6.72312454e+00 -5.10186962e+00 -3.45226194e+00 0.00000000e+00 -1.18616078e+01 -7.37437017e+00 -3.00453666e+00 0.00000000e+00 -1.24997940e+01 -7.26557158e+00 -3.39750442e+00 0.00000000e+00 -1.06663148e+01 -7.33756043e+00 -4.01256136e+00 
        </DataArray>
        <DataArray type="Float64" Name="p">
          -2.43326592e+03 -2.28074253e+03 -2.12821915e+03 -1.97569577e+03 -2.33147172e+03 -2.22658216e+03 -2.12169260e+03 -2.01680304e+03 -2.22967752e+03 -2.17242178e+03 -2.11516604e+03 -2.05791030e+03 -2.12788332e+03 -2.11826140e+03 -2.10863949e+03 -2.09901757e+03 
        </DataArray>
      </PointData>
    </Piece>
    <Piece NumberOfPoints="16" NumberOfCells="9">
      <Points>
        <DataArray type="Float64" NumberOfComponents="3" format="ascii">
          3.00000000e+00 7.00000000e+00 0.00000000e+00 
4.00000000e+00 7.00000000e+00 0.00000000e+00 
5.00000000e+00 7.00000000e+00 0.00000000e+00 
6.00000000e+00 7.00000000e+00 0.00000000e+00 
3.00000000e+00 7.33333349e+00 0.00000000e+00 
4.00000000e+00 7.33333349e+00 0.00000000e+00 
5.00000000e+00 7.33333349e+00 0.00000000e+00 
6.00000000e+00 7.33333349e+00 0.00000000e+00 
3.00000000e+00 7.66666651e+00 0.00000000e+00 
4.00000000e+00 7.66666651e+00 0.00000000e+00 
5.00000000e+00 7.66666651e+00 0.00000000e+00 
6.00000000e+00 7.66666651e+00 0.00000000e+00 
3.00000000e+00 8.00000000e+00 0.00000000e+00 
4.00000000e+00 8.00000000e+00 0.00000000e+00 
5.00000000e+00 8.00000000e+00 0.00000000e+00 
6.00000000e+00 8.00000000e+00 0.00000000e+00 

        </DataArray>
      </Points>
      <Cells>
        <DataArray type="Int32" Name="connectivity" format="ascii">
0 1 5 4
4 5 9 8
8 9 13 12
1 2 6 5
5 6 10 9
9 10 14 13
2 3 7 6
6 7 11 10
10 11 15 14

        </DataArray>
        <DataArray type="Int32" Name="offsets" format="ascii">
4 8 12 16 20 24 28 32 36 
        </DataArray>
        <DataArray type="UInt8" Name="types" format="ascii">
9 9 9 9 9 9 9 9 9 
        </DataArray>
      </Cells>
      <PointData>
        <DataArray type="Float64" Name="u">
          0.00000000e+00 -5.70151726e+00 -7.70522484e+00 -1.03819352e+01 0.00000000e+00 -6.37530854e+00 -9.92425880e+00 -1.41813223e+01 0.00000000e+00 -6.02987690e+00 -1.01082362e+01 -1.50048943e+01 0.00000000e+00 -5.09346523e+00 -8.85314588e+00 -1.35789653e+01 
        </DataArray>
        <DataArray type="Float64" Name="v">
          0.00000000e+00 -1.06663148e+01 -7.33756043e+00 -4.01256136e+00 0.00000000e+00 -8.12584556e+00 -5.99082741e+00 -3.59747611e+00 0.00000000e+00 -5.97992346e+00 -4.60215589e+00 -2.88231044e+00 0.00000000e+00 -3.47793703e+00 -2.85372466e+00 -1.85601866e+00 
        </DataArray>
        <DataArray type="Float64" Name="p">
          -2.13560331e+03 -2.11152526e+03 -2.08744721e+03 -2.06336916e+03 -2.10779349e+03 -2.08787664e+03 -2.06795978e+03 -2.04804293e+03 -2.07998367e+03 -2.06422801e+03 -2.04847236e+03 -2.03271670e+03 -2.05217385e+03 -2.04057939e+03 -2.02898493e+03 -2.01739046e+03 
        </DataArray>
      </PointData>
    </Piece>
    <Piece NumberOfPoints="16" NumberOfCells="9">
      <Points>
        <DataArray type="Float64" NumberOfComponents="3" format="ascii">
          3.00000000e+00 8.00000000e+00 0.00000000e+00 
4.00000000e+00 8.00000000e+00 0.00000000e+00 
5.00000000e+00 8.00000000e+00 0.00000000e+00 
6.00000000e+00 8.00000000e+00 0.00000000e+00 
3.00000000e+00 8.33333302e+00 0.00000000e+00 
4.00000000e+00 8.33333302e+00 0.00000000e+00 
5.00000000e+00 8.33333302e+00 0.00000000e+00 
6.00000000e+00 8.33333302e+00 0.00000000e+00 
3.00000000e+00 8.66666698e+00 0.00000000e+00 
4.00000000e+00 8.66666698e+00 0.00000000e+00 
5.00000000e+00 8.66666698e+00 0.00000000e+00 
6.00000000e+00 8.66666698e+00 0.00000000e+00 
3.00000000e+00 9.00000000e+00 0.00000000e+00 
4.00000000e+00 9.00000000e+00 0.00000000e+00 
5.00000000e+00 9.00000000e+00 0.00000000e+00 
6.00000000e+00 9.00000000e+00 0.00000000e+00 

        </DataArray>
      </Points>
      <Cells>
        <DataArray type="Int32" Name="connectivity" format="ascii">
0 1 5 4
4 5 9 8
8 9 13 12
1 2 6 5
5 6 10 9
9 10 14 13
2 3 7 6
6 7 11 10
10 11 15 14

        </DataArray>
        <DataArray type="Int32" Name="offsets" format="ascii">
4 8 12 16 20 24 28 32 36 
        </DataArray>
        <DataArray type="UInt8" Name="types" format="ascii">
9 9 9 9 9 9 9 9 9 
        </DataArray>
      </Cells>
      <PointData>
        <DataArray type="Float64" Name="u">
          0.00000000e+00 -5.09346523e+00 -8.85314588e+00 -1.35789653e+01 0.00000000e+00 -3.75674774e+00 -6.55779403e+00 -1.04610851e+01 0.00000000e+00 -2.05855464e+00 -3.51237286e+00 -5.86359687e+00 0.00000000e+00 0.00000000e+00 0.00000000e+00 0.00000000e+00 
        </DataArray>
        <DataArray type="Float64" Name="v">
          0.00000000e+00 -3.47793703e+00 -2.85372466e+00 -1.85601866e+00 0.00000000e+00 -1.55493695e+00 -1.35278513e+00 -8.53204019e-01 0.00000000e+00 -4.96403166e-01 -4.66213601e-01 -2.83055759e-01 0.00000000e+00 0.00000000e+00 0.00000000e+00 0.00000000e+00 
        </DataArray>
        <DataArray type="Float64" Name="p">
          -2.05768002e+03 -2.04412221e+03 -2.03056440e+03 -2.01700659e+03 -2.06324962e+03 -2.04926508e+03 -2.03528053e+03 -2.02129599e+03 -2.06881922e+03 -2.05440794e+03 -2.03999666e+03 -2.02558538e+03 -2.07438882e+03 -2.05955081e+03 -2.04471280e+03 -2.02987478e+03 
        </DataArray>
      </PointData>
    </Piece>
    <Piece NumberOfPoints="16" NumberOfCells="9">
      <Points>
        <DataArray type="Float64" NumberOfComponents="3" format="ascii">
          6.00000000e+00 0.00000000e+00 0.00000000e+00 
7.00000000e+00 0.00000000e+00 0.00000000e+00 
8.00000000e+00 0.00000000e+00 0.00000000e+00 
9.00000000e+00 0.00000000e+00 0.00000000e+00 
6.00000000e+00 3.33333343e-01 0.00000000e+00 
7.00000000e+00 3.33333343e-01 0.00000000e+00 
8.00000000e+00 3.33333343e-01 0.00000000e+00 
9.00000000e+00 3.33333343e-01 0.00000000e+00 
6.00000000e+00 6.66666687e-01 0.00000000e+00 
7.00000000e+00 6.66666687e-01 0.00000000e+00 
8.00000000e+00 6.66666687e-01 0.00000000e+00 
9.00000000e+00 6.66666687e-01 0.00000000e+00 
6.00000000e+00 1.00000000e+00 0.00000000e+00 
7.00000000e+00 1.00000000e+00 0.00000000e+00 
8.00000000e+00 1.00000000e+00 0.00000000e+00 
9.00000000e+00 1.00000000e+00 0.00000000e+00 

        </DataArray>
      </Points>
      <Cells>
        <DataArray type="Int32" Name="connectivity" format="ascii">
0 1 5 4
4 5 9 8
8 9 13 12
1 2 6 5
5 6 10 9
9 10 14 13
2 3 7 6
6 7 11 10
10 11 15 14

        </DataArray>
        <DataArray type="Int32" Name="offsets" format="ascii">
4 8 12 16 20 24 28 32 36 
        </DataArray>
        <DataArray type="UInt8" Name="types" format="ascii">
9 9 9 9 9 9 9 9 9 
        </DataArray>
      </Cells>
      <PointData>
        <DataArray type="Float64" Name="u">