<?xml version="1.0"?>
<VTKFile type="UnstructuredGrid" version="0.1" byte_order="LittleEndian">
  <UnstructuredGrid>
    <Piece NumberOfPoints="16" NumberOfCells="9">
      <Points>
        <DataArray type="Float64" NumberOfComponents="3" format="ascii">
          0.00000000e+00 3.00000000e+00 0.00000000e+00 
1.00000000e+00 3.00000000e+00 0.00000000e+00 
2.00000000e+00 3.00000000e+00 0.00000000e+00 
3.00000000e+00 3.00000000e+00 0.00000000e+00 
0.00000000e+00 3.33333325e+00 0.00000000e+00 
1.00000000e+00 3.33333325e+00 0.00000000e+00 
2.00000000e+00 3.33333325e+00 0.00000000e+00 
3.00000000e+00 3.33333325e+00 0.00000000e+00 
0.00000000e+00 3.66666675e+00 0.00000000e+00 
1.00000000e+00 3.66666675e+00 0.00000000e+00 
2.00000000e+00 3.66666675e+00 0.00000000e+00 
3.00000000e+00 3.66666675e+00 0.00000000e+00 
0.00000000e+00 4.00000000e+00 0.00000000e+00 
1.00000000e+00 4.00000000e+00 0.00000000e+00 
2.00000000e+00 4.00000000e+00 0.00000000e+00 
3.00000000e+00 4.00000000e+00 0.00000000e+00 

        </DataArray>
      </Points>
      <Cells>
        <DataArray type="Int32" Name="connectivity" format="ascii">
0 1 5 4
4 5 9 8
8 9 13 12
1 2 6 5
5 6 10 9
9 10 14 13
2 3 7 6
6 7 11 10
10 11 15 14

        </DataArray>
        <DataArray type="Int32" Name="offsets" format="ascii">
4 8 12 16 20 24 28 32 36 
        </DataArray>
        <DataArray type="UInt8" Name="types" format="ascii">
9 9 9 9 9 9 9 9 9 
        </DataArray>
      </Cells>
      <PointData>
        <DataArray type="Float64" Name="u">
          0.00000000e+00 0.00000000e+00 0.00000000e+00 0.00000000e+00 8.88888889e+01 8.92803670e+01 8.91675698e+01 9.01828486e+01 1.55555556e+02 1.55499534e+02 1.55950062e+02 1.55721179e+02 2.00000000e+02 1.99393268e+02 2.00256704e+02 1.99210512e+02 
        </DataArray>
        <DataArray type="Float64" Name="v">
          0.00000000e+00 0.00000000e+00 0.00000000e+00 0.00000000e+00 0.00000000e+00 -1.33743651e-01 1.51687414e-01 -1.44081518e+00 0.00000000e+00 -1.07123877e-01 -2.86858559e-02 -5.61990981e-01 0.00000000e+00 -1.57423388e-01 -4.83549250e-02 -5.79085729e-01 
        </DataArray>
        <DataArray type="Float64" Name="p">
          5.19351096e+03 3.54007567e+03 1.88664037e+03 2.33205075e+02 5.18013527e+03 3.53740775e+03 1.89468022e+03 2.51952700e+02 5.16675958e+03 3.53473983e+03 1.90272008e+03 2.70700324e+02 5.15338389e+03 3.53207191e+03 1.91075993e+03 2.89447949e+02 
        </DataArray>
      </PointData>
    </Piece>
    <Piece NumberOfPoints="16" NumberOfCells="9">
      <Points>
        <DataArray type="Float64" NumberOfComponents="3" format="ascii">
          0.00000000e+00 4.00000000e+00 0.00000000e+00 
1.00000000e+00 4.00000000e+00 0.00000000e+00 
2.00000000e+00 4.00000000e+00 0.00000000e+00 
3.00000000e+00 4.00000000e+00 0.00000000e+00 
0.00000000e+00 4.33333349e+00 0.00000000e+00 
1.00000000e+00 4.33333349e+00 0.00000000e+00 
2.00000000e+00 4.33333349e+00 0.00000000e+00 
3.00000000e+00 4.33333349e+00 0.00000000e+00 
0.00000000e+00 4.66666651e+00 0.00000000e+00 
1.00000000e+00 4.66666651e+00 0.00000000e+00 
2.00000000e+00 4.66666651e+00 0.00000000e+00 
3.00000000e+00 4.66666651e+00 0.00000000e+00 
0.00000000e+00 5.00000000e+00 0.00000000e+00 
1.00000000e+00 5.00000000e+00 0.00000000e+00 
2.00000000e+00 5.00000000e+00 0.00000000e+00 
3.00000000e+00 5.00000000e+00 0.00000000e+00 

        </DataArray>
      </Points>
      <Cells>
        <DataArray type="Int32" Name="connectivity" format="ascii">
0 1 5 4
4 5 9 8
8 9 13 12
1 2 6 5
5 6 10 9
9 10 14 13
2 3 7 6
6 7 11 10
10 11 15 14

        </DataArray>
        <DataArray type="Int32" Name="offsets" format="ascii">
4 8 12 16 20 24 28 32 36 
        </DataArray>
        <DataArray type="UInt8" Name="types" format="ascii">
9 9 9 9 9 9 9 9 9 
        </DataArray>
      </Cells>
      <PointData>
        <DataArray type="Float64" Name="u">
          2.00000000e+02 1.99393268e+02 2.00256704e+02 1.99210512e+02 2.22222222e+02 2.21440454e+02 2.22228699e+02 2.21288964e+02 2.22222222e+02 2.21440454e+02 2.22228699e+02 2.21288964e+02 2.00000000e+02 1.99393268e+02 2.00256704e+02 1.99210512e+02 
        </DataArray>
        <DataArray type="Float64" Name="v">
          0.00000000e+00 -1.57423388e-01 -4.83549250e-02 -5.79085729e-01 0.00000000e+00 9.39370941e-04 -7.00250446e-02 1.13909896e-01 0.00000000e+00 -9.39370942e-04 7.00250446e-02 -1.13909896e-01 0.00000000e+00 1.57423388e-01 4.83549250e-02 5.79085729e-01 
        </DataArray>
        <DataArray type="Float64" Name="p">
          5.16503099e+03 3.53883944e+03 1.91264788e+03 2.86456330e+02 5.16503099e+03 3.53883944e+03 1.91264788e+03 2.86456330e+02 5.16503099e+03 3.53883944e+03 1.91264788e+03 2.86456330e+02 5.16503099e+03 3.53883944e+03 1.91264788e+03 2.86456330e+02 
        </DataArray>
      </PointData>
    </Piece>
    <Piece NumberOfPoints="16" NumberOfCells="9">
      <Points>
        <DataArray type="Float64" NumberOfComponents="3" format="ascii">
          0.00000000e+00 5.00000000e+00 0.00000000e+00 
1.00000000e+00 5.00000000e+00 0.00000000e+00 
2.00000000e+00 5.00000000e+00 0.00000000e+00 
3.00000000e+00 5.00000000e+00 0.00000000e+00 
0.00000000e+00 5.33333349e+00 0.00000000e+00 
1.00000000e+00 5.33333349e+00 0.00000000e+00 
2.00000000e+00 5.33333349e+00 0.00000000e+00 
3.00000000e+00 5.33333349e+00 0.00000000e+00 
0.00000000e+00 5.66666651e+00 0.00000000e+00 
1.00000000e+00 5.66666651e+00 0.00000000e+00 
2.00000000e+00 5.66666651e+00 0.00000000e+00 
3.00000000e+00 5.66666651e+00 0.00000000e+00 
0.00000000e+00 6.00000000e+00 0.00000000e+00 
1.00000000e+00 6.00000000e+00 0.00000000e+00 
2.00000000e+00 6.00000000e+00 0.00000000e+00 
3.00000000e+00 6.00000000e+00 0.00000000e+00 

        </DataArray>
      </Points>
      <Cells>
        <DataArray type="Int32" Name="connectivity" format="ascii">
0 1 5 4
4 5 9 8
8 9 13 12
1 2 6 5
5 6 10 9
9 10 14 13
2 3 7 6
6 7 11 10
10 11 15 14

        </DataArray>
        <DataArray type="Int32" Name="offsets" format="ascii">
4 8 12 16 20 24 28 32 36 
        </DataArray>
        <DataArray type="UInt8" Name="types" format="ascii">
9 9 9 9 9 9 9 9 9 
        </DataArray>
      </Cells>
      <PointData>
        <DataArray type="Float64" Name="u">
          2.00000000e+02 1.99393268e+02 2.00256704e+02 1.99210512e+02 1.55555556e+02 1.55499534e+02 1.55950062e+02 1.55721179e+02 8.88888889e+01 8.92803670e+01 8.91675698e+01 9.01828486e+01 0.00000000e+00 0.00000000e+00 0.00000000e+00 0.00000000e+00 
        </DataArray>
        <DataArray type="Float64" Name="v">
          0.00000000e+00 1.57423388e-01 4.83549250e-02 5.79085729e-01 0.00000000e+00 1.07123877e-01 2.86858559e-02 5.61990981e-01 0.00000000e+00 1.33743651e-01 -1.51687414e-01 1.44081518e+00 0.00000000e+00 0.00000000e+00 0.00000000e+00 0.00000000e+00 
        </DataArray>
        <DataArray type="Float64" Name="p">
          5.15338389e+03 3.53207191e+03 1.91075993e+03 2.89447949e+02 5.16675958e+03 3.53473983e+03 1.90272008e+03 2.70700324e+02 5.18013527e+03 3.53740775e+03 1.89468022e+03 2.51952700e+02 5.19351096e+03 3.54007567e+03 1.88664037e+03 2.33205075e+02 
        </DataArray>
      </PointData>
    </Piece>
    <Piece NumberOfPoints="16" NumberOfCells="9">
      <Points>
        <DataArray type="Float64" NumberOfComponents="3" format="ascii">
          3.00000000e+00 0.00000000e+00 0.00000000e+00 
4.00000000e+00 0.00000000e+00 0.00000000e+00 
5.00000000e+00 0.00000000e+00 0.00000000e+00 
6.00000000e+00 0.00000000e+00 0.00000000e+00 
3.00000000e+00 3.33333343e-01 0.00000000e+00 
4.00000000e+00 3.33333343e-01 0.00000000e+00 
5.00000000e+00 3.33333343e-01 0.00000000e+00 
6.00000000e+00 3.33333343e-01 0.00000000e+00 
3.00000000e+00 6.66666687e-01 0.00000000e+00 
4.00000000e+00 6.66666687e-01 0.00000000e+00 
5.00000000e+00 6.66666687e-01 0.00000000e+00 
6.00000000e+00 6.66666687e-01 0.00000000e+00 
3.00000000e+00 1.00000000e+00 0.00000000e+00 
4.00000000e+00 1.00000000e+00 0.00000000e+00 
5.00000000e+00 1.00000000e+00 0.00000000e+00 
6.00000000e+00 1.00000000e+00 0.00000000e+00 

        </DataArray>
      </Points>
      <Cells>
        <DataArray type="Int32" Name="connectivity" format="ascii">
0 1 5 4
4 5 9 8
8 9 13 12
1 2 6 5
5 6 10 9
9 10 14 13
2 3 7 6
6 7 11 10
10 11 15 14

        </DataArray>
        <DataArray type="Int32" Name="offsets" format="ascii">
4 8 12 16 20 24 28 32 36 
        </DataArray>
        <DataArray type="UInt8" Name="types" format="ascii">
9 9 9 9 9 9 9 9 9 
        </DataArray>
      </Cells>
      <PointData>
        <DataArray type="Float64" Name="u">
          0.00000000e+00 0.00000000e+00 0.00000000e+00 0.00000000e+00 0.00000000e+00 -4.17609231e+00 -6.13943040e+00 -1.08051602e+01 0.00000000e+00 -7.10090241e+00 -1.07366099e+01 -1.79724722e+01 0.00000000e+00 -8.90422676e+00 -1.32728580e+01 -2.11247356e+01 
        </DataArray>
        <DataArray type="Float64" Name="v">
          0.00000000e+00 0.00000000e+00 0.00000000e+00 0.00000000e+00 0.00000000e+00 9.52041466e-01 9.03654837e-01 5.16256505e-01 0.00000000e+00 2.79636179e+00 2.45760629e+00 1.35501260e+00 0.00000000e+00 6.01431930e+00 5.01195851e+00 2.74037745e+00 
        </DataArray>
        <DataArray type="Float64" Name="p">
          4.48487235e+02 5.47330683e+02 6.46174131e+02 7.45017580e+02 4.65127551e+02 5.61964203e+02 6.58800855e+02 7.55637508e+02 4.81767866e+02 5.76597722e+02 6.71427579e+02 7.66257436e+02 4.98408181e+02 5.91231242e+02 6.84054303e+02 7.76877364e+02 
        </DataArray>
      </PointData>
    </Piece>
    <Piece NumberOfPoints="16" NumberOfCells="9">
      <Points>
        <DataArray type="Float64" NumberOfComponents="3" format="ascii">
          3.00000000e+00 1.00000000e+00 0.00000000e+00 
4.00000000e+00 1.00000000e+00 0.00000000e+00 
5.00000000e+00 1.00000000e+00 0.00000000e+00 
6.00000000e+00 1.00000000e+00 0.00000000e+00 
3.00000000e+00 1.33333337e+00 0.00000000e+00 
4.00000000e+00 1.33333337e+00 0.00000000e+00 
5.00000000e+00 1.33333337e+00 0.00000000e+00 
6.00000000e+00 1.33333337e+00 0.00000000e+00 
3.00000000e+00 1.66666663e+00 0.00000000e+00 
4.00000000e+00 1.66666663e+00 0.00000000e+00 
5.00000000e+00 1.66666663e+00 0.00000000e+00 
6.00000000e+00 1.66666663e+00 0.00000000e+00 
3.00000000e+00 2.00000000e+00 0.00000000e+00 
4.00000000e+00 2.00000000e+00 0.00000000e+00 
5.00000000e+00 2.00000000e+00 0.00000000e+00 
6.00000000e+00 2.00000000e+00 0.00000000e+00 

        </DataArray>
      </Points>
      <Cells>
        <DataArray type="Int32" Name="connectivity" format="ascii">
0 1 5 4
4 5 9 8
8 9 13 12
1 2 6 5
5 6 10 9
9 10 14 13
2 3 7 6
6 7 11 10
10 11 15 14

        </DataArray>
        <DataArray type="Int32" Name="offsets" format="ascii">
4 8 12 16 20 24 28 32 36 
        </DataArray>
        <DataArray type="UInt8" Name="types" format="ascii">
9 9 9 9 9 9 9 9 9 
        </DataArray>
      </Cells>
      <PointData>
        <DataArray type="Float64" Name="u">
          0.00000000e+00 -8.90422676e+00 -1.32728580e+01 -2.11247356e+01 0.00000000e+00 -9.60746591e+00 -1.33445963e+01 -2.00590211e+01 0.00000000e+00 -8.95713984e+00 -1.05357650e+01 -1.42138127e+01 0.00000000e+00 -6.28113312e+00 -4.21315427e+00 -2.99031920e+00 
        </DataArray>
        <DataArray type="Float64" Name="v">
          0.00000000e+00 6.01431930e+00 5.01195851e+00 2.74037745e+00 0.00000000e+00 9.74332470e+00 7.52723505e+00 3.64057406e+00 0.00000000e+00 1.26304747e+01 9.17314228e+00 3.67314608e+00 0.00000000e+00 1.53522451e+01 9.87365509e+00 2.45269559e+00 
        </DataArray>
        <DataArray type="Float64" Name="p">
          5.08858011e+02 5.94132778e+02 6.79407546e+02 7.64682314e+02 4.30665927e+02 5.25575406e+02 6.20484884e+02 7.15394362e+02 3.52473844e+02 4.57018033e+02 5.61562222e+02 6.66106411e+02 2.74281760e+02 3.88460660e+02 5.02639560e+02 6.16818460e+02 
        </DataArray>
      </PointData>
    </Piece>
    <Piece NumberOfPoints="16" NumberOfCells="9">
      <Points>
        <DataArray type="Float64" NumberOfComponents="3" format="ascii">
          3.00000000e+00 2.00000000e+00 0.00000000e+00 
4.00000000e+00 2.00000000e+00 0.00000000e+00 
5.00000000e+00 2.00000000e+00 0.00000000e+00 
6.00000000e+00 2.00000000e+00 0.00000000e+00 
3.00000000e+00 2.33333325e+00 0.00000000e+00 
4.00000000e+00 2.33333325e+00 0.00000000e+00 
5.00000000e+00 2.33333325e+00 0.00000000e+00 
6.00000000e+00 2.33333325e+00 0.00000000e+00 
3.00000000e+00 2.66666675e+00 0.00000000e+00 
4.00000000e+00 2.66666675e+00 0.00000000e+00 
5.00000000e+00 2.66666675e+00 0.00000000e+00 
6.00000000e+00 2.66666675e+00 0.00000000e+00 
3.00000000e+00 3.00000000e+00 0.00000000e+00 
4.00000000e+00 3.00000000e+00 0.00000000e+00 
5.00000000e+00 3.00000000e+00 0.00000000e+00 
6.00000000e+00 3.00000000e+00 0.00000000e+00 

        </DataArray>
      </Points>
      <Cells>
        <DataArray type="Int32" Name="connectivity" format="ascii">
0 1 5 4
4 5 9 8
8 9 13 12
1 2 6 5
5 6 10 9
9 10 14 13
2 3 7 6
6 7 11 10
10 11 15 14

        </DataArray>
        <DataArray type="Int32" Name="offsets" format="ascii">
4 8 12 16 20 24 28 32 36 
        </DataArray>
        <DataArray type="UInt8" Name="types" format="ascii">
9 9 9 9 9 9 9 9 9 
        </DataArray>
      </Cells>
      <PointData>
        <DataArray type="Float64" Name="u">
          0.00000000e+00 -6.28113312e+00 -4.21315427e+00 -2.99031920e+00 0.00000000e+00 -8.67308374e-02 6.34172472e+00 1.52869262e+01 0.00000000e+00 1.50327431e+01 2.49687744e+01 4.01313629e+01 0.00000000e+00 4.99604032e+01 5.65406923e+01 7.35119503e+01 
        </DataArray>
        <DataArray type="Float64" Name="v">
          0.00000000e+00 1.53522451e+01 9.87365509e+00 2.45269559e+00 0.00000000e+00 1.63547310e+01 7.79329690e+00 -6.91336069e-01 0.00000000e+00 1.27218109e+01 5.03674148e+00 -2.88348937e+00 0.00000000e+00 2.10116427e+00 -1.06218791e+00 -3.91203229e+00 
        </DataArray>
        <DataArray type="Float64" Name="p">
          3.05917660e+02 3.77021008e+02 4.48124357e+02 5.19227706e+02 3.14012899e+01 2.47276647e+02 4.63152004e+02 6.79027360e+02 -2.43115080e+02 1.17532285e+02 4.78179650e+02 8.38827015e+02 -5.17631450e+02 -1.22120768e+01 4.93207296e+02 9.98626670e+02 
        </DataArray>
      </PointData>
    </Piece>
    <Piece NumberOfPoints="16" NumberOfCells="9">
      <Points>
        <DataArray type="Float64" NumberOfComponents="3" format="ascii">
          3.00000000e+00 3.00000000e+00 0.00000000e+00 
4.00000000e+00 3.00000000e+00 0.00000000e+00 
5.00000000e+00 3.00000000e+00 0.00000000e+00 
6.00000000e+00 3.00000000e+00 0.00000000e+00 
3.00000000e+00 3.33333325e+00 0.00000000e+00 
4.00000000e+00 3.33333325e+00 0.00000000e+00 
5.00000000e+00 3.33333325e+00 0.00000000e+00 
6.00000000e+00 3.33333325e+00 0.00000000e+00 
3.00000000e+00 3.66666675e+00 0.00000000e+00 
4.00000000e+00 3.66666675e+00 0.00000000e+00 
5.00000000e+00 3.66666675e+00 0.00000000e+00 
6.00000000e+00 3.66666675e+00 0.00000000e+00 
3.00000000e+00 4.00000000e+00 0.00000000e+00 
4.00000000e+00 4.00000000e+00 0.00000000e+00 
5.00000000e+00 4.00000000e+00 0.00000000e+00 
6.00000000e+00 4.00000000e+00 0.00000000e+00 

        </DataArray>
      </Points>
      <Cells>
        <DataArray type="Int32" Name="connectivity" format="ascii">
0 1 5 4
4 5 9 8
8 9 13 12
1 2 6 5
5 6 10 9
9 10 14 13
2 3 7 6
6 7 11 10
10 11 15 14

        </DataArray>
        <DataArray type="Int32" Name="offsets" format="ascii">
4 8 12 16 20 24 28 32 36 
        </DataArray>
        <DataArray type="UInt8" Name="types" format="ascii">
9 9 9 9 9 9 9 9 9 
        </DataArray>
      </Cells>
      <PointData>
        <DataArray type="Float64" Name="u">
          0.00000000e+00 4.99604032e+01 5.65406923e+01 7.35119503e+01 9.01828486e+01 9.72778798e+01 1.03196079e+02 1.08379185e+02 1.55721179e+02 1.50757933e+02 1.51096875e+02 1.47968261e+02 1.99210512e+02 1.90853343e+02 1.88711193e+02 1.80192865e+02 
        </DataArray>
        <DataArray type="Float64" Name="v">
          0.00000000e+00 2.10116427e+00 -1.06218791e+00 -3.91203229e+00 -1.44081518e+00 -6.38778719e+00 -4.87129792e+00 -2.27074624e+00 -5.61990981e-01 -6.97730799e+00 -6.57700535e+00 -2.40184275e+00 -5.79085729e-01 -4.70067193e+00 -4.23271842e+00 -2.02403231e+00 
        </DataArray>
        <DataArray type="Float64" Name="p">
          -5.88005794e+02 8.56076320e+00 6.05127321e+02 1.20169388e+03 -1.42514683e+02 2.20917898e+02 5.84350480e+02 9.47783061e+02 3.02976428e+02 4.33275034e+02 5.63573639e+02 6.93872245e+02 7.48467539e+02 6.45632169e+02 5.42796798e+02 4.39961428e+02 
        </DataArray>
      </PointData>
    </Piece>
    <Piece NumberOfPoints="16" NumberOfCells="9">
      <Points>
        <DataArray type="Float64" NumberOfComponents="3" format="ascii">
          3.00000000e+00 4.00000000e+00 0.00000000e+00 
4.00000000e+00 4.00000000e+00 0.00000000e+00 
5.00000000e+00 4.00000000e+00 0.00000000e+00 
6.00000000e+00 4.00000000e+00 0.00000000e+00 
3.00000000e+00 4.33333349e+00 0.00000000e+00 
4.00000000e+00 4.33333349e+00 0.00000000e+00 
5.00000000e+00 4.33333349e+00 0.00000000e+00 
6.00000000e+00 4.33333349e+00 0.00000000e+00 
3.00000000e+00 4.66666651e+00 0.00000000e+00 
4.00000000e+00 4.66666651e+00 0.00000000e+00 
5.00000000e+00 4.66666651e+00 0.00000000e+00 
6.00000000e+00 4.66666651e+00 0.00000000e+00 
3.00000000e+00 5.00000000e+00 0.00000000e+00 
4.00000000e+00 5.00000000e+00 0.00000000e+00 
5.00000000e+00 5.00000000e+00 0.00000000e+00 
6.00000000e+00 5.00000000e+00 0.00000000e+00 

        </DataArray>
      </Points>
      <Cells>
        <DataArray type="Int32" Name="connectivity" format="ascii">
0 1 5 4
4 5 9 8
8 9 13 12
1 2 6 5
5 6 10 9
9 10 14 13
2 3 7 6
6 7 11 10
10 11 15 14

        </DataArray>
        <DataArray type="Int32" Name="offsets" format="ascii">
4 8 12 16 20 24 28 32 36 
        </DataArray>
        <DataArray type="UInt8" Name="types" format="ascii">
9 9 9 9 9 9 9 9 9 
        </DataArray>
      </Cells>
      <PointData>
        <DataArray type="Float64" Name="u">
          1.99210512e+02 1.90853343e+02 1.88711193e+02 1.80192865e+02 2.21288964e+02 2.11665230e+02 2.08084653e+02 1.98224891e+02 2.21288964e+02 2.11665230e+02 2.08084653e+02 1.98224891e+02 1.99210512e+02 1.90853343e+02 1.88711193e+02 1.80192865e+02 
        </DataArray>
        <DataArray type="Float64" Name="v">
          -5.79085729e-01 -4.70067193e+00 -4.23271842e+00 -2.02403231e+00 1.13909896e-01 -6.39745305e-01 -1.39287419e+00 -1.06121794e+00 -1.13909896e-01 6.39745305e-01 1.39287419e+00 1.06121794e+00 5.79085729e-01 4.70067193e+00 4.23271842e+00 2.02403231e+00 
        </DataArray>
        <DataArray type="Float64" Name="p">
          9.24652713e+02 7.23230381e+02 5.21808049e+02 3.20385717e+02 9.24652713e+02 7.23230381e+02 5.21808049e+02 3.20385717e+02 9.24652713e+02 7.23230381e+02 5.21808049e+02 3.20385717e+02 9.24652713e+02 7.23230381e+02 5.21808049e+02 3.20385717e+02 
        </DataArray>
      </PointData>
    </Piece>
    <Piece NumberOfPoints="16" NumberOfCells="9">
      <Points>
        <DataArray type="Float64" NumberOfComponents="3" format="ascii">
          3.00000000e+00 5.00000000e+00 0.00000000e+00 
4.00000000e+00 5.00000000e+00 0.00000000e+00 
5.00000000e+00 5.00000000e+00 0.00000000e+00 
6.00000000e+00 5.00000000e+00 0.00000000e+00 
3.00000000e+00 5.33333349e+00 0.00000000e+00 
4.00000000e+00 5.33333349e+00 0.00000000e+00 
5.00000000e+00 5.33333349e+00 0.00000000e+00 
6.00000000e+00 5.33333349e+00 0.00000000e+00 
3.00000000e+00 5.66666651e+00 0.00000000e+00 
4.00000000e+00 5.66666651e+00 0.00000000e+00 
5.00000000e+00 5.66666651e+00 0.00000000e+00 
6.00000000e+00 5.66666651e+00 0.00000000e+00 
3.00000000e+00 6.00000000e+00 0.00000000e+00 
4.00000000e+00 6.00000000e+00 0.00000000e+00 
5.00000000e+00 6.00000000e+00 0.00000000e+00 
6.00000000e+00 6.00000000e+00 0.00000000e+00 

        </DataArray>
      </Points>
      <Cells>
        <DataArray type="Int32" Name="connectivity" format="ascii">
0 1 5 4
4 5 9 8
8 9 13 12
1 2 6 5
5 6 10 9
9 10 14 13
2 3 7 6
6 7 11 10
10 11 15 14

        </DataArray>
        <DataArray type="Int32" Name="offsets" format="ascii">
4 8 12 16 20 24 28 32 36 
        </DataArray>
        <DataArray type="UInt8" Name="types" format="ascii">
9 9 9 9 9 9 9 9 9 
        </DataArray>
      </Cells>
      <PointData>
        <DataArray type="Float64" Name="u">
          1.99210512e+02 1.90853343e+02 1.88711193e+02 1.80192865e+02 1.55721179e+02 1.50757933e+02 1.51096875e+02 1.47968261e+02 9.01828486e+01 9.72778798e+01 1.03196079e+02 1.08379185e+02 0.00000000e+00 4.99604032e+01 5.65406923e+01 7.35119503e+01 
        </DataArray>
        <DataArray type="Float64" Name="v">
          5.79085729e-01 4.70067193e+00 4.23271842e+00 2.02403231e+00 5.61990981e-01 6.97730799e+00 6.57700535e+00 2.40184275e+00 1.44081518e+00 6.38778719e+00 4.87129792e+00 2.27074624e+00 0.00000000e+00 -2.10116427e+00 1.06218791e+00 3.91203229e+00 
        </DataArray>
        <DataArray type="Float64" Name="p">
          7.48467539e+02 6.45632169e+02 5.42796798e+02 4.39961428e+02 3.02976428e+02 4.33275034e+02 5.63573639e+02 6.93872245e+02 -1.42514683e+02 2.20917898e+02 5.84350480e+02 9.47783061e+02 -5.88005794e+02 8.56076320e+00 6.05127321e+02 1.20169388e+03 
        </DataArray>
      </PointData>
    </Piece>
    <Piece NumberOfPoints="16" NumberOfCells="9">
      <Points>
        <DataArray type="Float64" NumberOfComponents="3" format="ascii">
          3.00000000e+00 6.00000000e+00 0.00000000e+00 
4.00000000e+00 6.00000000e+00 0.00000000e+00 
5.00000000e+00 6.00000000e+00 0.00000000e+00 
6.00000000e+00 6.00000000e+00 0.00000000e+00 
3.00000000e+00 6.33333349e+00 0.00000000e+00 
4.00000000e+00 6.33333349e+00 0.00000000e+00 
5.00000000e+00 6.33333349e+00 0.00000000e+00 
6.00000000e+00 6.33333349e+00 0.00000000e+00 
3.00000000e+00 6.66666651e+00 0.00000000e+00 
4.00000000e+00 6.66666651e+00 0.00000000e+00 
5.00000000e+00 6.66666651e+00 0.00000000e+00 
6.00000000e+00 6.66666651e+00 0.00000000e+00 
3.00000000e+00 7.00000000e+00 0.00000000e+00 
4.00000000e+00 7.00000000e+00 0.00000000e+00 
5.00000000e+00 7.00000000e+00 0.00000000e+00 
6.00000000e+00 7.00000000e+00 0.00000000e+00 

        </DataArray>
      </Points>
      <Cells>
        <DataArray type="Int32" Name="connectivity" format="ascii">
0 1 5 4
4 5 9 8
8 9 13 12
1 2 6 5
5 6 10 9
9 10 14 13
2 3 7 6
6 7 11 10
10 11 15 14

        </DataArray>
        <DataArray type="Int32" Name="offsets" format="ascii">
4 8 12 16 20 24 28 32 36 
        </DataArray>
        <DataArray type="UInt8" Name="types" format="ascii">
9 9 9 9 9 9 9 9 9 
        </DataArray>
      </Cells>
      <PointData>
        <DataArray type="Float64" Name="u">
          0.00000000e+00 4.99604032e+01 5.65406923e+01 7.35119503e+01 0.00000000e+00 1.50327431e+01 2.49687744e+01 4.01313629e+01 0.00000000e+00 -8.67308374e-02 6.34172472e+00 1.52869262e+01 0.00000000e+00 -6.28113312e+00 -4.21315427e+00 -2.99031920e+00 
        </DataArray>
        <DataArray type="Float64" Name="v">
          0.00000000e+00 -2.10116427e+00 1.06218791e+00 3.91203229e+00 0.00000000e+00 -1.27218109e+01 -5.03674148e+00 2.88348937e+00 0.00000000e+00 -1.63547310e+01 -7.79329690e+00 6.91336069e-01 0.00000000e+00 -1.53522451e+01 -9.87365509e+00 -2.45269559e+00 
        </DataArray>
        <DataArray type="Float64" Name="p">
          -5.17631450e+02 -1.22120768e+01 4.93207296e+02 9.98626670e+02 -2.43115080e+02 1.17532285e+02 4.78179650e+02 8.38827015e+02 3.14012899e+01 2.47276647e+02 4.63152004e+02 6.79027360e+02 3.05917660e+02 3.77021008e+02 4.48124357e+02 5.19227706e+02 
        </DataArray>
      </PointData>
    </Piece>
    <Piece NumberOfPoints="16" NumberOfCells="9">
      <Points>
        <DataArray type="Float64" NumberOfComponents="3" format="ascii">
          3.00000000e+00 7.00000000e+00 0.00000000e+00 
4.00000000e+00 7.00000000e+00 0.00000000e+00 
5.00000000e+00 7.00000000e+00 0.00000000e+00 
6.00000000e+00 7.00000000e+00 0.00000000e+00 
3.00000000e+00 7.33333349e+00 0.00000000e+00 
4.00000000e+00 7.33333349e+00 0.00000000e+00 
5.00000000e+00 7.33333349e+00 0.00000000e+00 
6.00000000e+00 7.33333349e+00 0.00000000e+00 
3.00000000e+00 7.66666651e+00 0.00000000e+00 
4.00000000e+00 7.66666651e+00 0.00000000e+00 
5.00000000e+00 7.66666651e+00 0.00000000e+00 
6.00000000e+00 7.66666651e+00 0.00000000e+00 
3.00000000e+00 8.00000000e+00 0.00000000e+00 
4.00000000e+00 8.00000000e+00 0.00000000e+00 
5.00000000e+00 8.00000000e+00 0.00000000e+00 
6.00000000e+00 8.00000000e+00 0.00000000e+00 

        </DataArray>
      </Points>
      <Cells>
        <DataArray type="Int32" Name="connectivity" format="ascii">
0 1 5 4
4 5 9 8
8 9 13 12
1 2 6 5
5 6 10 9
9 10 14 13
2 3 7 6
6 7 11 10
10 11 15 14

        </DataArray>
        <DataArray type="Int32" Name="offsets" format="ascii">
4 8 12 16 20 24 28 32 36 
        </DataArray>
        <DataArray type="UInt8" Name="types" format="ascii">
9 9 9 9 9 9 9 9 9 
        </DataArray>
      </Cells>
      <PointData>
        <DataArray type="Float64" Name="u">
          0.00000000e+00 -6.28113312e+00 -4.21315427e+00 -2.99031920e+00 0.00000000e+00 -8.95713984e+00 -1.05357650e+01 -1.42138127e+01 0.00000000e+00 -9.60746591e+00 -1.33445963e+01 -2.00590211e+01 0.00000000e+00 -8.90422676e+00 -1.32728580e+01 -2.11247356e+01 
        </DataArray>
        <DataArray type="Float64" Name="v">
          0.00000000e+00 -1.53522451e+01 -9.87365509e+00 -2.45269559e+00 0.00000000e+00 -1.26304747e+01 -9.17314228e+00 -3.67314608e+00 0.00000000e+00 -9.74332470e+00 -7.52723505e+00 -3.64057406e+00 0.00000000e+00 -6.01431930e+00 -5.01195851e+00 -2.74037745e+00 
        </DataArray>
        <DataArray type="Float64" Name="p">
          2.74281760e+02 3.88460660e+02 5.02639560e+02 6.16818460e+02 3.52473844e+02 4.57018033e+02 5.61562222e+02 6.66106411e+02 4.30665927e+02 5.25575406e+02 6.20484884e+02 7.15394362e+02 5.08858011e+02 5.94132778e+02 6.79407546e+02 7.64682314e+02 
        </DataArray>
      </PointData>
    </Piece>
    <Piece NumberOfPoints="16" NumberOfCells="9">
      <Points>
        <DataArray type="Float64" NumberOfComponents="3" format="ascii">
          3.00000000e+00 8.00000000e+00 0.00000000e+00 
4.00000000e+00 8.00000000e+00 0.00000000e+00 
5.00000000e+00 8.00000000e+00 0.00000000e+00 
6.00000000e+00 8.00000000e+00 0.00000000e+00 
3.00000000e+00 8.33333302e+00 0.00000000e+00 
4.00000000e+00 8.33333302e+00 0.00000000e+00 
5.00000000e+00 8.33333302e+00 0.00000000e+00 
6.00000000e+00 8.33333302e+00 0.00000000e+00 
3.00000000e+00 8.66666698e+00 0.00000000e+00 
4.00000000e+00 8.66666698e+00 0.00000000e+00 
5.00000000e+00 8.66666698e+00 0.00000000e+00 
6.00000000e+00 8.66666698e+00 0.00000000e+00 
3.00000000e+00 9.00000000e+00 0.00000000e+00 
4.00000000e+00 9.00000000e+00 0.00000000e+00 
5.00000000e+00 9.00000000e+00 0.00000000e+00 
6.00000000e+00 9.00000000e+00 0.00000000e+00 

        </DataArray>
      </Points>
      <Cells>
        <DataArray type="Int32" Name="connectivity" format="ascii">
0 1 5 4
4 5 9 8
8 9 13 12
1 2 6 5
5 6 10 9
9 10 14 13
2 3 7 6
6 7 11 10
10 11 15 14

        </DataArray>
        <DataArray type="Int32" Name="offsets" format="ascii">
4 8 12 16 20 24 28 32 36 
        </DataArray>
        <DataArray type="UInt8" Name="types" format="ascii">
9 9 9 9 9 9 9 9 9 
        </DataArray>
      </Cells>
      <PointData>
        <DataArray type="Float64" Name="u">
          0.00000000e+00 -8.90422676e+00 -1.32728580e+01 -2.11247356e+01 0.00000000e+00 -7.10090241e+00 -1.07366099e+01 -1.79724722e+01 0.00000000e+00 -4.17609231e+00 -6.13943040e+00 -1.08051602e+01 0.00000000e+00 0.00000000e+00 0.00000000e+00 0.00000000e+00 
        </DataArray>
        <DataArray type="Float64" Name="v">
          0.00000000e+00 -6.01431930e+00 -5.01195851e+00 -2.74037745e+00 0.00000000e+00 -2.79636179e+00 -2.45760629e+00 -1.35501260e+00 0.00000000e+00 -9.52041466e-01 -9.03654837e-01 -5.16256505e-01 0.00000000e+00 0.00000000e+00 0.00000000e+00 0.00000000e+00 
        </DataArray>
        <DataArray type="Float64" Name="p">
          4.98408181e+02 5.91231242e+02 6.84054303e+02 7.76877364e+02 4.81767866e+02 5.76597722e+02 6.71427579e+02 7.66257436e+02 4.65127551e+02 5.61964203e+02 6.58800855e+02 7.55637508e+02 4.48487235e+02 5.47330683e+02 6.46174131e+02 7.45017580e+02 
        </DataArray>
      </PointData>
    </Piece>
    <Piece NumberOfPoints="16" NumberOfCells="9">
      <Points>
        <DataArray type="Float64" NumberOfComponents="3" format="ascii">
          6.00000000e+00 0.00000000e+00 0.00000000e+00 
7.00000000e+00 0.00000000e+00 0.00000000e+00 
8.00000000e+00 0.00000000e+00 0.00000000e+00 
9.00000000e+00 0.00000000e+00 0.00000000e+00 
6.00000000e+00 3.33333343e-01 0.00000000e+00 
7.00000000e+00 3.33333343e-01 0.00000000e+00 
8.00000000e+00 3.33333343e-01 0.00000000e+00 
9.00000000e+00 3.33333343e-01 0.00000000e+00 
6.00000000e+00 6.66666687e-01 0.00000000e+00 
7.00000000e+00 6.66666687e-01 0.00000000e+00 
8.00000000e+00 6.66666687e-01 0.00000000e+00 
9.00000000e+00 6.66666687e-01 0.00000000e+00 
6.00000000e+00 1.00000000e+00 0.00000000e+00 
7.00000000e+00 1.00000000e+00 0.00000000e+00 
8.00000000e+00 1.00000000e+00 0.00000000e+00 
9.00000000e+00 1.00000000e+00 0.00000000e+00 

        </DataArray>
      </Points>
      <Cells>
        <DataArray type="Int32" Name="connectivity" format="ascii">
0 1 5 4
4 5 9 8
8 9 13 12
1 2 6 5
5 6 10 9
9 10 14 13
2 3 7 6
6 7 11 10
10 11 15 14

        </DataArray>
        <DataArray type="Int32" Name="offsets" format="ascii">
4 8 12 16 20 24 28 32 36 
        </DataArray>
        <DataArray type="UInt8" Name="types" format="ascii">
9 9 9 9 9 9 9 9 9 
        </DataArray>
      </Cells>
      <PointData>
        <DataArray type="Float64" Name="u">
          0.00000000e+00 0.00000000e+00 0.00000000e+00 0.00000000e+00 -1.08051602e+01 -1.34536296e+01 -1.30958277e+01 -1.40786660e+01 -1.79724722e+01 -2.13562049e+01 -2.05719565e+01 -2.16973047e+01 -2.11247356e+01 -2.38788132e+01 -2.24041695e+01 -2.29867375e+01 
        </DataArray>
        <DataArray type="Float64" Name="v">