<?xml version="1.0"?>
<VTKFile type="UnstructuredGrid" version="0.1" byte_order="LittleEndian">
  <UnstructuredGrid>
    <Piece NumberOfPoints="16" NumberOfCells="9">
      <Points>
        <DataArray type="Float64" NumberOfComponents="3" format="ascii">
          0.00000000e+00 3.00000000e+00 0.00000000e+00 
1.00000000e+00 3.00000000e+00 0.00000000e+00 
2.00000000e+00 3.00000000e+00 0.00000000e+00 
3.00000000e+00 3.00000000e+00 0.00000000e+00 
0.00000000e+00 3.33333325e+00 0.00000000e+00 
1.00000000e+00 3.33333325e+00 0.00000000e+00 
2.00000000e+00 3.33333325e+00 0.00000000e+00 
3.00000000e+00 3.33333325e+00 0.00000000e+00 
0.00000000e+00 3.66666675e+00 0.00000000e+00 
1.00000000e+00 3.66666675e+00 0.00000000e+00 
2.00000000e+00 3.66666675e+00 0.00000000e+00 
3.00000000e+00 3.66666675e+00 0.00000000e+00 
0.00000000e+00 4.00000000e+00 0.00000000e+00 
1.00000000e+00 4.00000000e+00 0.00000000e+00 
2.00000000e+00 4.00000000e+00 0.00000000e+00 
3.00000000e+00 4.00000000e+00 0.00000000e+00 

        </DataArray>
      </Points>
      <Cells>
        <DataArray type="Int32" Name="connectivity" format="ascii">
0 1 5 4
4 5 9 8
8 9 13 12
1 2 6 5
5 6 10 9
9 10 14 13
2 3 7 6
6 7 11 10
10 11 15 14

        </DataArray>
        <DataArray type="Int32" Name="offsets" format="ascii">
4 8 12 16 20 24 28 32 36 
        </DataArray>
        <DataArray type="UInt8" Name="types" format="ascii">
9 9 9 9 9 9 9 9 9 
        </DataArray>
      </Cells>
      <PointData>
        <DataArray type="Float64" Name="u">
          0.00000000e+00 0.00000000e+00 0.00000000e+00 0.00000000e+00 8.88888889e+01 9.53507859e+01 9.25630148e+01 1.06598744e+02 1.55555556e+02 1.60139245e+02 1.58966860e+02 1.66964394e+02 2.00000000e+02 2.02559478e+02 2.02186466e+02 2.07630196e+02 
        </DataArray>
        <DataArray type="Float64" Name="v">
          0.00000000e+00 0.00000000e+00 0.00000000e+00 0.00000000e+00 0.00000000e+00 -1.86863906e+00 -2.67397214e+00 -4.42175984e+00 0.00000000e+00 -1.17507419e+00 -2.73634345e+00 -4.43217981e+00 0.00000000e+00 -3.05643234e+00 -5.07829356e+00 -7.25791461e+00 
        </DataArray>
        <DataArray type="Float64" Name="p">
          -2.78577385e+03 -3.31536997e+03 -3.84496609e+03 -4.37456221e+03 -2.73229929e+03 -3.25804036e+03 -3.78378144e+03 -4.30952251e+03 -2.67882473e+03 -3.20071076e+03 -3.72259678e+03 -4.24448281e+03 -2.62535018e+03 -3.14338115e+03 -3.66141213e+03 -4.17944311e+03 
        </DataArray>
      </PointData>
    </Piece>
    <Piece NumberOfPoints="16" NumberOfCells="9">
      <Points>
        <DataArray type="Float64" NumberOfComponents="3" format="ascii">
          0.00000000e+00 4.00000000e+00 0.00000000e+00 
1.00000000e+00 4.00000000e+00 0.00000000e+00 
2.00000000e+00 4.00000000e+00 0.00000000e+00 
3.00000000e+00 4.00000000e+00 0.00000000e+00 
0.00000000e+00 4.33333349e+00 0.00000000e+00 
1.00000000e+00 4.33333349e+00 0.00000000e+00 
2.00000000e+00 4.33333349e+00 0.00000000e+00 
3.00000000e+00 4.33333349e+00 0.00000000e+00 
0.00000000e+00 4.66666651e+00 0.00000000e+00 
1.00000000e+00 4.66666651e+00 0.00000000e+00 
2.00000000e+00 4.66666651e+00 0.00000000e+00 
3.00000000e+00 4.66666651e+00 0.00000000e+00 
0.00000000e+00 5.00000000e+00 0.00000000e+00 
1.00000000e+00 5.00000000e+00 0.00000000e+00 
2.00000000e+00 5.00000000e+00 0.00000000e+00 
3.00000000e+00 5.00000000e+00 0.00000000e+00 

        </DataArray>
      </Points>
      <Cells>
        <DataArray type="Int32" Name="connectivity" format="ascii">
0 1 5 4
4 5 9 8
8 9 13 12
1 2 6 5
5 6 10 9
9 10 14 13
2 3 7 6
6 7 11 10
10 11 15 14

        </DataArray>
        <DataArray type="Int32" Name="offsets" format="ascii">
4 8 12 16 20 24 28 32 36 
        </DataArray>
        <DataArray type="UInt8" Name="types" format="ascii">
9 9 9 9 9 9 9 9 9 
        </DataArray>
      </Cells>
      <PointData>
        <DataArray type="Float64" Name="u">
          2.00000000e+02 2.02559478e+02 2.02186466e+02 2.07630196e+02 2.22222222e+02 2.23106788e+02 2.22908380e+02 2.24207173e+02 2.22222222e+02 2.21275106e+02 2.20917993e+02 2.19122963e+02 2.00000000e+02 1.97553656e+02 1.97345677e+02 1.91964846e+02 
        </DataArray>
        <DataArray type="Float64" Name="v">
          0.00000000e+00 -3.05643234e+00 -5.07829356e+00 -7.25791461e+00 0.00000000e+00 -3.46614169e+00 -5.92774731e+00 -7.51648430e+00 0.00000000e+00 -3.47480776e+00 -5.87044218e+00 -7.51410085e+00 0.00000000e+00 -2.91419600e+00 -5.05484311e+00 -6.50568008e+00 
        </DataArray>
        <DataArray type="Float64" Name="p">
          -2.59969210e+03 -3.11550933e+03 -3.63132656e+03 -4.14714379e+03 -2.31892173e+03 -2.89776158e+03 -3.47660144e+03 -4.05544129e+03 -2.03815135e+03 -2.68001383e+03 -3.32187631e+03 -3.96373879e+03 -1.75738098e+03 -2.46226608e+03 -3.16715118e+03 -3.87203629e+03 
        </DataArray>
      </PointData>
    </Piece>
    <Piece NumberOfPoints="16" NumberOfCells="9">
      <Points>
        <DataArray type="Float64" NumberOfComponents="3" format="ascii">
          0.00000000e+00 5.00000000e+00 0.00000000e+00 
1.00000000e+00 5.00000000e+00 0.00000000e+00 
2.00000000e+00 5.00000000e+00 0.00000000e+00 
3.00000000e+00 5.00000000e+00 0.00000000e+00 
0.00000000e+00 5.33333349e+00 0.00000000e+00 
1.00000000e+00 5.33333349e+00 0.00000000e+00 
2.00000000e+00 5.33333349e+00 0.00000000e+00 
3.00000000e+00 5.33333349e+00 0.00000000e+00 
0.00000000e+00 5.66666651e+00 0.00000000e+00 
1.00000000e+00 5.66666651e+00 0.00000000e+00 
2.00000000e+00 5.66666651e+00 0.00000000e+00 
3.00000000e+00 5.66666651e+00 0.00000000e+00 
0.00000000e+00 6.00000000e+00 0.00000000e+00 
1.00000000e+00 6.00000000e+00 0.00000000e+00 
2.00000000e+00 6.00000000e+00 0.00000000e+00 
3.00000000e+00 6.00000000e+00 0.00000000e+00 

        </DataArray>
      </Points>
      <Cells>
        <DataArray type="Int32" Name="connectivity" format="ascii">
0 1 5 4
4 5 9 8
8 9 13 12
1 2 6 5
5 6 10 9
9 10 14 13
2 3 7 6
6 7 11 10
10 11 15 14

        </DataArray>
        <DataArray type="Int32" Name="offsets" format="ascii">
4 8 12 16 20 24 28 32 36 
        </DataArray>
        <DataArray type="UInt8" Name="types" format="ascii">
9 9 9 9 9 9 9 9 9 
        </DataArray>
      </Cells>
      <PointData>
        <DataArray type="Float64" Name="u">
          2.00000000e+02 1.97553656e+02 1.97345677e+02 1.91964846e+02 1.55555556e+02 1.51581666e+02 1.51732582e+02 1.43943841e+02 8.88888889e+01 8.36463621e+01 8.47143668e+01 7.27661910e+01 0.00000000e+00 0.00000000e+00 0.00000000e+00 0.00000000e+00 
        </DataArray>
        <DataArray type="Float64" Name="v">
          0.00000000e+00 -2.91419600e+00 -5.05484311e+00 -6.50568008e+00 0.00000000e+00 -1.15945612e+00 -2.58020884e+00 -4.04768576e+00 0.00000000e+00 -1.65864539e+00 -2.70753600e+00 -3.03749398e+00 0.00000000e+00 0.00000000e+00 0.00000000e+00 0.00000000e+00 
        </DataArray>
        <DataArray type="Float64" Name="p">
          -1.73698892e+03 -2.43215920e+03 -3.12732947e+03 -3.82249974e+03 -1.67942262e+03 -2.37753335e+03 -3.07564408e+03 -3.77375481e+03 -1.62185632e+03 -2.32290751e+03 -3.02395869e+03 -3.72500987e+03 -1.56429002e+03 -2.26828166e+03 -2.97227330e+03 -3.67626493e+03 
        </DataArray>
      </PointData>
    </Piece>
    <Piece NumberOfPoints="16" NumberOfCells="9">
      <Points>
        <DataArray type="Float64" NumberOfComponents="3" format="ascii">
          3.00000000e+00 0.00000000e+00 0.00000000e+00 
4.00000000e+00 0.00000000e+00 0.00000000e+00 
5.00000000e+00 0.00000000e+00 0.00000000e+00 
6.00000000e+00 0.00000000e+00 0.00000000e+00 
3.00000000e+00 3.33333343e-01 0.00000000e+00 
4.00000000e+00 3.33333343e-01 0.00000000e+00 
5.00000000e+00 3.33333343e-01 0.00000000e+00 
6.00000000e+00 3.33333343e-01 0.00000000e+00 
3.00000000e+00 6.66666687e-01 0.00000000e+00 
4.00000000e+00 6.66666687e-01 0.00000000e+00 
5.00000000e+00 6.66666687e-01 0.00000000e+00 
6.00000000e+00 6.66666687e-01 0.00000000e+00 
3.00000000e+00 1.00000000e+00 0.00000000e+00 
4.00000000e+00 1.00000000e+00 0.00000000e+00 
5.00000000e+00 1.00000000e+00 0.00000000e+00 
6.00000000e+00 1.00000000e+00 0.00000000e+00 

        </DataArray>
      </Points>
      <Cells>
        <DataArray type="Int32" Name="connectivity" format="ascii">
0 1 5 4
4 5 9 8
8 9 13 12
1 2 6 5
5 6 10 9
9 10 14 13
2 3 7 6
6 7 11 10
10 11 15 14

        </DataArray>
        <DataArray type="Int32" Name="offsets" format="ascii">
4 8 12 16 20 24 28 32 36 
        </DataArray>
        <DataArray type="UInt8" Name="types" format="ascii">
9 9 9 9 9 9 9 9 9 
        </DataArray>
      </Cells>
      <PointData>
        <DataArray type="Float64" Name="u">
          0.00000000e+00 0.00000000e+00 0.00000000e+00 0.00000000e+00 0.00000000e+00 -2.14257920e+00 -4.31947109e+00 -6.58087670e+00 0.00000000e+00 -4.08436558e+00 -8.12284666e+00 -1.34062801e+01 0.00000000e+00 -5.57536995e+00 -1.08425681e+01 -1.76259929e+01 
        </DataArray>
        <DataArray type="Float64" Name="v">
          0.00000000e+00 0.00000000e+00 0.00000000e+00 0.00000000e+00 0.00000000e+00 5.94878494e-01 4.41318982e-01 2.96028024e-01 0.00000000e+00 1.80891828e+00 1.52513960e+00 1.25060288e+00 0.00000000e+00 4.04499947e+00 3.73848014e+00 2.51204890e+00 
        </DataArray>
        <DataArray type="Float64" Name="p">
          -5.07331970e+03 -5.07022996e+03 -5.06714022e+03 -5.06405048e+03 -5.07087095e+03 -5.06629649e+03 -5.06172203e+03 -5.05714756e+03 -5.06842220e+03 -5.06236302e+03 -5.05630383e+03 -5.05024465e+03 -5.06597345e+03 -5.05842955e+03 -5.05088564e+03 -5.04334174e+03 
        </DataArray>
      </PointData>
    </Piece>
    <Piece NumberOfPoints="16" NumberOfCells="9">
      <Points>
        <DataArray type="Float64" NumberOfComponents="3" format="ascii">
          3.00000000e+00 1.00000000e+00 0.00000000e+00 
4.00000000e+00 1.00000000e+00 0.00000000e+00 
5.00000000e+00 1.00000000e+00 0.00000000e+00 
6.00000000e+00 1.00000000e+00 0.00000000e+00 
3.00000000e+00 1.33333337e+00 0.00000000e+00 
4.00000000e+00 1.33333337e+00 0.00000000e+00 
5.00000000e+00 1.33333337e+00 0.00000000e+00 
6.00000000e+00 1.33333337e+00 0.00000000e+00 
3.00000000e+00 1.66666663e+00 0.00000000e+00 
4.00000000e+00 1.66666663e+00 0.00000000e+00 
5.00000000e+00 1.66666663e+00 0.00000000e+00 
6.00000000e+00 1.66666663e+00 0.00000000e+00 
3.00000000e+00 2.00000000e+00 0.00000000e+00 
4.00000000e+00 2.00000000e+00 0.00000000e+00 
5.00000000e+00 2.00000000e+00 0.00000000e+00 
6.00000000e+00 2.00000000e+00 0.00000000e+00 

        </DataArray>
      </Points>
      <Cells>
        <DataArray type="Int32" Name="connectivity" format="ascii">
0 1 5 4
4 5 9 8
8 9 13 12
1 2 6 5
5 6 10 9
9 10 14 13
2 3 7 6
6 7 11 10
10 11 15 14

        </DataArray>
        <DataArray type="Int32" Name="offsets" format="ascii">
4 8 12 16 20 24 28 32 36 
        </DataArray>
        <DataArray type="UInt8" Name="types" format="ascii">
9 9 9 9 9 9 9 9 9 
        </DataArray>
      </Cells>
      <PointData>
        <DataArray type="Float64" Name="u">
          0.00000000e+00 -5.57536995e+00 -1.08425681e+01 -1.76259929e+01 0.00000000e+00 -6.42854735e+00 -1.16637221e+01 -1.76937260e+01 0.00000000e+00 -6.47384277e+00 -9.86639476e+00 -1.29675709e+01 0.00000000e+00 -5.31851454e+00 -4.55520208e+00 -2.42567346e+00 
        </DataArray>
        <DataArray type="Float64" Name="v">
          0.00000000e+00 4.04499947e+00 3.73848014e+00 2.51204890e+00 0.00000000e+00 6.89086813e+00 6.02931714e+00 4.24907696e+00 0.00000000e+00 9.15684970e+00 7.57097125e+00 4.61216774e+00 0.00000000e+00 1.15251543e+01 8.37411744e+00 3.50985823e+00 
        </DataArray>
        <DataArray type="Float64" Name="p">
          -5.06117709e+03 -5.05649256e+03 -5.05180804e+03 -5.04712351e+03 -5.08217361e+03 -5.08058841e+03 -5.07900320e+03 -5.07741800e+03 -5.10317014e+03 -5.10468426e+03 -5.10619837e+03 -5.10771249e+03 -5.12416666e+03 -5.12878010e+03 -5.13339354e+03 -5.13800698e+03 
        </DataArray>
      </PointData>
    </Piece>
    <Piece NumberOfPoints="16" NumberOfCells="9">
      <Points>
        <DataArray type="Float64" NumberOfComponents="3" format="ascii">
          3.00000000e+00 2.00000000e+00 0.00000000e+00 
4.00000000e+00 2.00000000e+00 0.00000000e+00 
5.00000000e+00 2.00000000e+00 0.00000000e+00 
6.00000000e+00 2.00000000e+00 0.00000000e+00 
3.00000000e+00 2.33333325e+00 0.00000000e+00 
4.00000000e+00 2.33333325e+00 0.00000000e+00 
5.00000000e+00 2.33333325e+00 0.00000000e+00 
6.00000000e+00 2.33333325e+00 0.00000000e+00 
3.00000000e+00 2.66666675e+00 0.00000000e+00 
4.00000000e+00 2.66666675e+00 0.00000000e+00 
5.00000000e+00 2.66666675e+00 0.00000000e+00 
6.00000000e+00 2.66666675e+00 0.00000000e+00 
3.00000000e+00 3.00000000e+00 0.00000000e+00 
4.00000000e+00 3.00000000e+00 0.00000000e+00 
5.00000000e+00 3.00000000e+00 0.00000000e+00 
6.00000000e+00 3.00000000e+00 0.00000000e+00 

        </DataArray>
      </Points>
      <Cells>
        <DataArray type="Int32" Name="connectivity" format="ascii">
0 1 5 4
4 5 9 8
8 9 13 12
1 2 6 5
5 6 10 9
9 10 14 13
2 3 7 6
6 7 11 10
10 11 15 14

        </DataArray>
        <DataArray type="Int32" Name="offsets" format="ascii">
4 8 12 16 20 24 28 32 36 
        </DataArray>
        <DataArray type="UInt8" Name="types" format="ascii">
9 9 9 9 9 9 9 9 9 
        </DataArray>
      </Cells>
      <PointData>
        <DataArray type="Float64" Name="u">
          0.00000000e+00 -5.31851454e+00 -4.55520208e+00 -2.42567346e+00 0.00000000e+00 -1.71983595e+00 4.86286443e+00 1.76448171e+01 0.00000000e+00 1.06711758e+01 2.48597128e+01 4.83712184e+01 0.00000000e+00 5.31501102e+01 7.06450227e+01 9.62786877e+01 
        </DataArray>
        <DataArray type="Float64" Name="v">
          0.00000000e+00 1.15251543e+01 8.37411744e+00 3.50985823e+00 0.00000000e+00 1.27224679e+01 5.62548936e+00 -1.77839491e+00 0.00000000e+00 9.96763197e+00 2.96820174e+00 -6.20657337e+00 0.00000000e+00 -9.62187816e-01 -6.41275905e+00 -1.19678596e+01 
        </DataArray>
        <DataArray type="Float64" Name="p">
          -5.10485123e+03 -5.13696548e+03 -5.16907973e+03 -5.20119397e+03 -5.20369551e+03 -5.17365235e+03 -5.14360920e+03 -5.11356604e+03 -5.30253978e+03 -5.21033923e+03 -5.11813867e+03 -5.02593811e+03 -5.40138406e+03 -5.24702610e+03 -5.09266814e+03 -4.93831018e+03 
        </DataArray>
      </PointData>
    </Piece>
    <Piece NumberOfPoints="16" NumberOfCells="9">
      <Points>
        <DataArray type="Float64" NumberOfComponents="3" format="ascii">
          3.00000000e+00 3.00000000e+00 0.00000000e+00 
4.00000000e+00 3.00000000e+00 0.00000000e+00 
5.00000000e+00 3.00000000e+00 0.00000000e+00 
6.00000000e+00 3.00000000e+00 0.00000000e+00 
3.00000000e+00 3.33333325e+00 0.00000000e+00 
4.00000000e+00 3.33333325e+00 0.00000000e+00 
5.00000000e+00 3.33333325e+00 0.00000000e+00 
6.00000000e+00 3.33333325e+00 0.00000000e+00 
3.00000000e+00 3.66666675e+00 0.00000000e+00 
4.00000000e+00 3.66666675e+00 0.00000000e+00 
5.00000000e+00 3.66666675e+00 0.00000000e+00 
6.00000000e+00 3.66666675e+00 0.00000000e+00 
3.00000000e+00 4.00000000e+00 0.00000000e+00 
4.00000000e+00 4.00000000e+00 0.00000000e+00 
5.00000000e+00 4.00000000e+00 0.00000000e+00 
6.00000000e+00 4.00000000e+00 0.00000000e+00 

        </DataArray>
      </Points>
      <Cells>
        <DataArray type="Int32" Name="connectivity" format="ascii">
0 1 5 4
4 5 9 8
8 9 13 12
1 2 6 5
5 6 10 9
9 10 14 13
2 3 7 6
6 7 11 10
10 11 15 14

        </DataArray>
        <DataArray type="Int32" Name="offsets" format="ascii">
4 8 12 16 20 24 28 32 36 
        </DataArray>
        <DataArray type="UInt8" Name="types" format="ascii">
9 9 9 9 9 9 9 9 9 
        </DataArray>
      </Cells>
      <PointData>
        <DataArray type="Float64" Name="u">
          0.00000000e+00 5.31501102e+01 7.06450227e+01 9.62786877e+01 1.06598744e+02 1.15366602e+02 1.30736650e+02 1.45570737e+02 1.66964394e+02 1.70518850e+02 1.78650218e+02 1.85907910e+02 2.07630196e+02 2.05820792e+02 2.10285906e+02 2.10584935e+02 
        </DataArray>
        <DataArray type="Float64" Name="v">
          0.00000000e+00 -9.62187816e-01 -6.41275905e+00 -1.19678596e+01 -4.42175984e+00 -1.21837233e+01 -1.54879523e+01 -1.67689042e+01 -4.43217981e+00 -1.11028748e+01 -1.53328860e+01 -1.76730421e+01 -7.25791461e+00 -1.35604996e+01 -1.82006315e+01 -2.25447098e+01 
        </DataArray>
        <DataArray type="Float64" Name="p">
          -5.53457235e+03 -5.32905064e+03 -5.12352893e+03 -4.91800722e+03 -5.13737533e+03 -5.05347286e+03 -4.96957040e+03 -4.88566793e+03 -4.74017831e+03 -4.77789509e+03 -4.81561187e+03 -4.85332865e+03 -4.34298129e+03 -4.50231731e+03 -4.66165334e+03 -4.82098937e+03 
        </DataArray>
      </PointData>
    </Piece>
    <Piece NumberOfPoints="16" NumberOfCells="9">
      <Points>
        <DataArray type="Float64" NumberOfComponents="3" format="ascii">
          3.00000000e+00 4.00000000e+00 0.00000000e+00 
4.00000000e+00 4.00000000e+00 0.00000000e+00 
5.00000000e+00 4.00000000e+00 0.00000000e+00 
6.00000000e+00 4.00000000e+00 0.00000000e+00 
3.00000000e+00 4.33333349e+00 0.00000000e+00 
4.00000000e+00 4.33333349e+00 0.00000000e+00 
5.00000000e+00 4.33333349e+00 0.00000000e+00 
6.00000000e+00 4.33333349e+00 0.00000000e+00 
3.00000000e+00 4.66666651e+00 0.00000000e+00 
4.00000000e+00 4.66666651e+00 0.00000000e+00 
5.00000000e+00 4.66666651e+00 0.00000000e+00 
6.00000000e+00 4.66666651e+00 0.00000000e+00 
3.00000000e+00 5.00000000e+00 0.00000000e+00 
4.00000000e+00 5.00000000e+00 0.00000000e+00 
5.00000000e+00 5.00000000e+00 0.00000000e+00 
6.00000000e+00 5.00000000e+00 0.00000000e+00 

        </DataArray>
      </Points>
      <Cells>
        <DataArray type="Int32" Name="connectivity" format="ascii">
0 1 5 4
4 5 9 8
8 9 13 12
1 2 6 5
5 6 10 9
9 10 14 13
2 3 7 6
6 7 11 10
10 11 15 14

        </DataArray>
        <DataArray type="Int32" Name="offsets" format="ascii">
4 8 12 16 20 24 28 32 36 
        </DataArray>
        <DataArray type="UInt8" Name="types" format="ascii">
9 9 9 9 9 9 9 9 9 
        </DataArray>
      </Cells>
      <PointData>
        <DataArray type="Float64" Name="u">
          2.07630196e+02 2.05820792e+02 2.10285906e+02 2.10584935e+02 2.24207173e+02 2.20943784e+02 2.19653203e+02 2.14441069e+02 2.19122963e+02 2.12610301e+02 2.07444473e+02 1.96685783e+02 1.91964846e+02 1.84029511e+02 1.75871240e+02 1.61570286e+02 
        </DataArray>
        <DataArray type="Float64" Name="v">
          -7.25791461e+00 -1.35604996e+01 -1.82006315e+01 -2.25447098e+01 -7.51648430e+00 -1.20207160e+01 -1.70902608e+01 -2.20230600e+01 -7.51410085e+00 -1.20564157e+01 -1.62170133e+01 -2.06215450e+01 -6.50568008e+00 -8.30087845e+00 -1.20228447e+01 -1.62592788e+01 
        </DataArray>
        <DataArray type="Float64" Name="p">
          -4.27038188e+03 -4.42980117e+03 -4.58922046e+03 -4.74863975e+03 -3.94039655e+03 -4.08322328e+03 -4.22605000e+03 -4.36887673e+03 -3.61041122e+03 -3.73664538e+03 -3.86287955e+03 -3.98911371e+03 -3.28042589e+03 -3.39006749e+03 -3.49970909e+03 -3.60935069e+03 
        </DataArray>
      </PointData>
    </Piece>
    <Piece NumberOfPoints="16" NumberOfCells="9">
      <Points>
        <DataArray type="Float64" NumberOfComponents="3" format="ascii">
          3.00000000e+00 5.00000000e+00 0.00000000e+00 
4.00000000e+00 5.00000000e+00 0.00000000e+00 
5.00000000e+00 5.00000000e+00 0.00000000e+00 
6.00000000e+00 5.00000000e+00 0.00000000e+00 
3.00000000e+00 5.33333349e+00 0.00000000e+00 
4.00000000e+00 5.33333349e+00 0.00000000e+00 
5.00000000e+00 5.33333349e+00 0.00000000e+00 
6.00000000e+00 5.33333349e+00 0.00000000e+00 
3.00000000e+00 5.66666651e+00 0.00000000e+00 
4.00000000e+00 5.66666651e+00 0.00000000e+00 
5.00000000e+00 5.66666651e+00 0.00000000e+00 
6.00000000e+00 5.66666651e+00 0.00000000e+00 
3.00000000e+00 6.00000000e+00 0.00000000e+00 
4.00000000e+00 6.00000000e+00 0.00000000e+00 
5.00000000e+00 6.00000000e+00 0.00000000e+00 
6.00000000e+00 6.00000000e+00 0.00000000e+00 

        </DataArray>
      </Points>
      <Cells>
        <DataArray type="Int32" Name="connectivity" format="ascii">
0 1 5 4
4 5 9 8
8 9 13 12
1 2 6 5
5 6 10 9
9 10 14 13
2 3 7 6
6 7 11 10
10 11 15 14

        </DataArray>
        <DataArray type="Int32" Name="offsets" format="ascii">
4 8 12 16 20 24 28 32 36 
        </DataArray>
        <DataArray type="UInt8" Name="types" format="ascii">
9 9 9 9 9 9 9 9 9 
        </DataArray>
      </Cells>
      <PointData>
        <DataArray type="Float64" Name="u">
          1.91964846e+02 1.84029511e+02 1.75871240e+02 1.61570286e+02 1.43943841e+02 1.33957230e+02 1.24818320e+02 1.10311419e+02 7.27661910e+01 7.14387572e+01 6.60226161e+01 5.89842160e+01 0.00000000e+00 2.62125696e+01 2.43852010e+01 2.94190601e+01 
        </DataArray>
        <DataArray type="Float64" Name="v">
          -6.50568008e+00 -8.30087845e+00 -1.20228447e+01 -1.62592788e+01 -4.04768576e+00 -3.65995835e+00 -5.71912741e+00 -9.82428478e+00 -3.03749398e+00 -3.60555215e+00 -6.60170128e+00 -8.68904498e+00 0.00000000e+00 -6.30952616e+00 -4.66680677e+00 -3.06756649e+00 
        </DataArray>
        <DataArray type="Float64" Name="p">
          -3.30286160e+03 -3.36015380e+03 -3.41744601e+03 -3.47473821e+03 -3.34975192e+03 -3.34251744e+03 -3.33528295e+03 -3.32804846e+03 -3.39664224e+03 -3.32488107e+03 -3.25311989e+03 -3.18135872e+03 -3.44353256e+03 -3.30724470e+03 -3.17095683e+03 -3.03466897e+03 
        </DataArray>
      </PointData>
    </Piece>
    <Piece NumberOfPoints="16" NumberOfCells="9">
      <Points>
        <DataArray type="Float64" NumberOfComponents="3" format="ascii">
          3.00000000e+00 6.00000000e+00 0.00000000e+00 
4.00000000e+00 6.00000000e+00 0.00000000e+00 
5.00000000e+00 6.00000000e+00 0.00000000e+00 
6.00000000e+00 6.00000000e+00 0.00000000e+00 
3.00000000e+00 6.33333349e+00 0.00000000e+00 
4.00000000e+00 6.33333349e+00 0.00000000e+00 
5.00000000e+00 6.33333349e+00 0.00000000e+00 
6.00000000e+00 6.33333349e+00 0.00000000e+00 
3.00000000e+00 6.66666651e+00 0.00000000e+00 
4.00000000e+00 6.66666651e+00 0.00000000e+00 
5.00000000e+00 6.66666651e+00 0.00000000e+00 
6.00000000e+00 6.66666651e+00 0.00000000e+00 
3.00000000e+00 7.00000000e+00 0.00000000e+00 
4.00000000e+00 7.00000000e+00 0.00000000e+00 
5.00000000e+00 7.00000000e+00 0.00000000e+00 
6.00000000e+00 7.00000000e+00 0.00000000e+00 

        </DataArray>
      </Points>
      <Cells>
        <DataArray type="Int32" Name="connectivity" format="ascii">
0 1 5 4
4 5 9 8
8 9 13 12
1 2 6 5
5 6 10 9
9 10 14 13
2 3 7 6
6 7 11 10
10 11 15 14

        </DataArray>
        <DataArray type="Int32" Name="offsets" format="ascii">
4 8 12 16 20 24 28 32 36 
        </DataArray>
        <DataArray type="UInt8" Name="types" format="ascii">
9 9 9 9 9 9 9 9 9 
        </DataArray>
      </Cells>
      <PointData>
        <DataArray type="Float64" Name="u">
          0.00000000e+00 2.62125696e+01 2.43852010e+01 2.94190601e+01 0.00000000e+00 3.40304521e+00 4.91499351e+00 8.90826277e+00 0.00000000e+00 -3.15951547e+00 -3.43994555e+00 -3.08888048e+00 0.00000000e+00 -5.03389272e+00 -7.18805568e+00 -9.74858433e+00 
        </DataArray>
        <DataArray type="Float64" Name="v">
          0.00000000e+00 -6.30952616e+00 -4.66680677e+00 -3.06756649e+00 0.00000000e+00 -1.03756438e+01 -6.50188656e+00 -2.81936652e+00 0.00000000e+00 -1.05661718e+01 -6.12990740e+00 -3.19260817e+00 0.00000000e+00 -8.83592206e+00 -6.09439452e+00 -3.58182309e+00 
        </DataArray>
        <DataArray type="Float64" Name="p">
          -3.43305365e+03 -3.34487400e+03 -3.25669435e+03 -3.16851471e+03 -3.36919986e+03 -3.30995772e+03 -3.25071559e+03 -3.19147346e+03 -3.30534607e+03 -3.27504145e+03 -3.24473683e+03 -3.21443222e+03 -3.24149228e+03 -3.24012518e+03 -3.23875807e+03 -3.23739097e+03 
        </DataArray>
      </PointData>
    </Piece>
    <Piece NumberOfPoints="16" NumberOfCells="9">
      <Points>
        <DataArray type="Float64" NumberOfComponents="3" format="ascii">
          3.00000000e+00 7.00000000e+00 0.00000000e+00 
4.00000000e+00 7.00000000e+00 0.00000000e+00 
5.00000000e+00 7.00000000e+00 0.00000000e+00 
6.00000000e+00 7.00000000e+00 0.00000000e+00 
3.00000000e+00 7.33333349e+00 0.00000000e+00 
4.00000000e+00 7.33333349e+00 0.00000000e+00 
5.00000000e+00 7.33333349e+00 0.00000000e+00 
6.00000000e+00 7.33333349e+00 0.00000000e+00 
3.00000000e+00 7.66666651e+00 0.00000000e+00 
4.00000000e+00 7.66666651e+00 0.00000000e+00 
5.00000000e+00 7.66666651e+00 0.00000000e+00 
6.00000000e+00 7.66666651e+00 0.00000000e+00 
3.00000000e+00 8.00000000e+00 0.00000000e+00 
4.00000000e+00 8.00000000e+00 0.00000000e+00 
5.00000000e+00 8.00000000e+00 0.00000000e+00 
6.00000000e+00 8.00000000e+00 0.00000000e+00 

        </DataArray>
      </Points>
      <Cells>
        <DataArray type="Int32" Name="connectivity" format="ascii">
0 1 5 4
4 5 9 8
8 9 13 12
1 2 6 5
5 6 10 9
9 10 14 13
2 3 7 6
6 7 11 10
10 11 15 14

        </DataArray>
        <DataArray type="Int32" Name="offsets" format="ascii">
4 8 12 16 20 24 28 32 36 
        </DataArray>
        <DataArray type="UInt8" Name="types" format="ascii">
9 9 9 9 9 9 9 9 9 
        </DataArray>
      </Cells>
      <PointData>
        <DataArray type="Float64" Name="u">
          0.00000000e+00 -5.03389272e+00 -7.18805568e+00 -9.74858433e+00 0.00000000e+00 -5.32945935e+00 -8.67681538e+00 -1.23388901e+01 0.00000000e+00 -4.87565740e+00 -8.52357402e+00 -1.25434964e+01 0.00000000e+00 -4.00888409e+00 -7.26886329e+00 -1.10360399e+01 
        </DataArray>
        <DataArray type="Float64" Name="v">
          0.00000000e+00 -8.83592206e+00 -6.09439452e+00 -3.58182309e+00 0.00000000e+00 -6.59936023e+00 -4.87327297e+00 -3.09709019e+00 0.00000000e+00 -4.80658452e+00 -3.71543635e+00 -2.43719877e+00 0.00000000e+00 -2.74426045e+00 -2.26381811e+00 -1.53794252e+00 
        </DataArray>
        <DataArray type="Float64" Name="p">
          -3.24557533e+03 -3.23520192e+03 -3.22482851e+03 -3.21445511e+03 -3.22879763e+03 -3.22060862e+03 -3.21241961e+03 -3.20423059e+03 -3.21201994e+03 -3.20601532e+03 -3.20001070e+03 -3.19400608e+03 -3.19524224e+03 -3.19142202e+03 -3.18760179e+03 -3.18378157e+03 
        </DataArray>
      </PointData>
    </Piece>
    <Piece NumberOfPoints="16" NumberOfCells="9">
      <Points>
        <DataArray type="Float64" NumberOfComponents="3" format="ascii">
          3.00000000e+00 8.00000000e+00 0.00000000e+00 
4.00000000e+00 8.00000000e+00 0.00000000e+00 
5.00000000e+00 8.00000000e+00 0.00000000e+00 
6.00000000e+00 8.00000000e+00 0.00000000e+00 
3.00000000e+00 8.33333302e+00 0.00000000e+00 
4.00000000e+00 8.33333302e+00 0.00000000e+00 
5.00000000e+00 8.33333302e+00 0.00000000e+00 
6.00000000e+00 8.33333302e+00 0.00000000e+00 
3.00000000e+00 8.66666698e+00 0.00000000e+00 
4.00000000e+00 8.66666698e+00 0.00000000e+00 
5.00000000e+00 8.66666698e+00 0.00000000e+00 
6.00000000e+00 8.66666698e+00 0.00000000e+00 
3.00000000e+00 9.00000000e+00 0.00000000e+00 
4.00000000e+00 9.00000000e+00 0.00000000e+00 
5.00000000e+00 9.00000000e+00 0.00000000e+00 
6.00000000e+00 9.00000000e+00 0.00000000e+00 

        </DataArray>
      </Points>
      <Cells>
        <DataArray type="Int32" Name="connectivity" format="ascii">
0 1 5 4
4 5 9 8
8 9 13 12
1 2 6 5
5 6 10 9
9 10 14 13
2 3 7 6
6 7 11 10
10 11 15 14

        </DataArray>
        <DataArray type="Int32" Name="offsets" format="ascii">
4 8 12 16 20 24 28 32 36 
        </DataArray>
        <DataArray type="UInt8" Name="types" format="ascii">
9 9 9 9 9 9 9 9 9 
        </DataArray>
      </Cells>
      <PointData>
        <DataArray type="Float64" Name="u">
          0.00000000e+00 -4.00888409e+00 -7.26886329e+00 -1.10360399e+01 0.00000000e+00 -2.88181113e+00 -5.26598034e+00 -8.31496643e+00 0.00000000e+00 -1.53792253e+00 -2.76651068e+00 -4.56853182e+00 0.00000000e+00 0.00000000e+00 0.00000000e+00 0.00000000e+00 
        </DataArray>
        <DataArray type="Float64" Name="v">
          0.00000000e+00 -2.74426045e+00 -2.26381811e+00 -1.53794252e+00 0.00000000e+00 -1.21121446e+00 -1.06084658e+00 -7.02327975e-01 0.00000000e+00 -3.79093893e-01 -3.60251680e-01 -2.31551171e-01 0.00000000e+00 0.00000000e+00 0.00000000e+00 0.00000000e+00 
        </DataArray>
        <DataArray type="Float64" Name="p">
          -3.19897794e+03 -3.19402241e+03 -3.18906688e+03 -3.18411135e+03 -3.20228406e+03 -3.19708670e+03 -3.19188934e+03 -3.18669198e+03 -3.20559017e+03 -3.20015098e+03 -3.19471180e+03 -3.18927261e+03 -3.20889628e+03 -3.20321527e+03 -3.19753425e+03 -3.19185324e+03 
        </DataArray>
      </PointData>
    </Piece>
    <Piece NumberOfPoints="16" NumberOfCells="9">
      <Points>
        <DataArray type="Float64" NumberOfComponents="3" format="ascii">
          6.00000000e+00 0.00000000e+00 0.00000000e+00 
7.00000000e+00 0.00000000e+00 0.00000000e+00 
8.00000000e+00 0.00000000e+00 0.00000000e+00 
9.00000000e+00 0.00000000e+00 0.00000000e+00 
6.00000000e+00 3.33333343e-01 0.00000000e+00 
7.00000000e+00 3.33333343e-01 0.00000000e+00 
8.00000000e+00 3.33333343e-01 0.00000000e+00 
9.00000000e+00 3.33333343e-01 0.00000000e+00 
6.00000000e+00 6.66666687e-01 0.00000000e+00 
7.00000000e+00 6.66666687e-01 0.00000000e+00 
8.00000000e+00 6.66666687e-01 0.00000000e+00 
9.00000000e+00 6.66666687e-01 0.00000000e+00 
6.00000000e+00 1.00000000e+00 0.00000000e+00 
7.00000000e+00 1.00000000e+00 0.00000000e+00 
8.00000000e+00 1.00000000e+00 0.00000000e+00 
9.00000000e+00 1.00000000e+00 0.00000000e+00 

        </DataArray>
      </Points>
      <Cells>
        <DataArray type="Int32" Name="connectivity" format="ascii">
0 1 5 4
4 5 9 8
8 9 13 12
1 2 6 5
5 6 10 9
9 10 14 13
2 3 7 6
6 7 11 10
10 11 15 14

        </DataArray>
        <DataArray type="Int32" Name="offsets" format="ascii">
4 8 12 16 20 24 28 32 36 
        </DataArray>
        <DataArray type="UInt8" Name="types" format="ascii">
9 9 9 9 9 9 9 9 9 
        </DataArray>
      </Cells>
      <PointData>
        <DataArray type="Float64" Name="u">