<?xml version="1.0"?>
<VTKFile type="UnstructuredGrid" version="0.1" byte_order="LittleEndian">
  <UnstructuredGrid>
    <Piece NumberOfPoints="16" NumberOfCells="9">
      <Points>
        <DataArray type="Float64" NumberOfComponents="3" format="ascii">
          0.00000000e+00 3.00000000e+00 0.00000000e+00 
1.00000000e+00 3.00000000e+00 0.00000000e+00 
2.00000000e+00 3.00000000e+00 0.00000000e+00 
3.00000000e+00 3.00000000e+00 0.00000000e+00 
0.00000000e+00 3.33333325e+00 0.00000000e+00 
1.00000000e+00 3.33333325e+00 0.00000000e+00 
2.00000000e+00 3.33333325e+00 0.00000000e+00 
3.00000000e+00 3.33333325e+00 0.00000000e+00 
0.00000000e+00 3.66666675e+00 0.00000000e+00 
1.00000000e+00 3.66666675e+00 0.00000000e+00 
2.00000000e+00 3.66666675e+00 0.00000000e+00 
3.00000000e+00 3.66666675e+00 0.00000000e+00 
0.00000000e+00 4.00000000e+00 0.00000000e+00 
1.00000000e+00 4.00000000e+00 0.00000000e+00 
2.00000000e+00 4.00000000e+00 0.00000000e+00 
3.00000000e+00 4.00000000e+00 0.00000000e+00 

        </DataArray>
      </Points>
      <Cells>
        <DataArray type="Int32" Name="connectivity" format="ascii">
0 1 5 4
4 5 9 8
8 9 13 12
1 2 6 5
5 6 10 9
9 10 14 13
2 3 7 6
6 7 11 10
10 11 15 14

        </DataArray>
        <DataArray type="Int32" Name="offsets" format="ascii">
4 8 12 16 20 24 28 32 36 
        </DataArray>
        <DataArray type="UInt8" Name="types" format="ascii">
9 9 9 9 9 9 9 9 9 
        </DataArray>
      </Cells>
      <PointData>
        <DataArray type="Float64" Name="u">
          0.00000000e+00 0.00000000e+00 0.00000000e+00 0.00000000e+00 8.88888889e+01 8.91078453e+01 8.74133352e+01 8.51866294e+01 1.55555556e+02 1.57222314e+02 1.53090711e+02 1.53740155e+02 2.00000000e+02 2.03534902e+02 1.97040199e+02 2.01832804e+02 
        </DataArray>
        <DataArray type="Float64" Name="v">
          0.00000000e+00 0.00000000e+00 0.00000000e+00 0.00000000e+00 0.00000000e+00 9.69271789e-04 3.56066360e-01 -6.28413780e-01 0.00000000e+00 9.70333915e-03 3.85223226e-01 -2.24758648e-01 0.00000000e+00 3.71954928e-02 2.85774580e-01 1.24347863e-02 
        </DataArray>
        <DataArray type="Float64" Name="p">
          2.27491342e+04 1.51382151e+04 7.52729592e+03 -8.36232270e+01 2.27463386e+04 1.51355043e+04 7.52467013e+03 -8.61640874e+01 2.27435429e+04 1.51327936e+04 7.52204434e+03 -8.87049479e+01 2.27407472e+04 1.51300829e+04 7.51941854e+03 -9.12458083e+01 
        </DataArray>
      </PointData>
    </Piece>
    <Piece NumberOfPoints="16" NumberOfCells="9">
      <Points>
        <DataArray type="Float64" NumberOfComponents="3" format="ascii">
          0.00000000e+00 4.00000000e+00 0.00000000e+00 
1.00000000e+00 4.00000000e+00 0.00000000e+00 
2.00000000e+00 4.00000000e+00 0.00000000e+00 
3.00000000e+00 4.00000000e+00 0.00000000e+00 
0.00000000e+00 4.33333349e+00 0.00000000e+00 
1.00000000e+00 4.33333349e+00 0.00000000e+00 
2.00000000e+00 4.33333349e+00 0.00000000e+00 
3.00000000e+00 4.33333349e+00 0.00000000e+00 
0.00000000e+00 4.66666651e+00 0.00000000e+00 
1.00000000e+00 4.66666651e+00 0.00000000e+00 
2.00000000e+00 4.66666651e+00 0.00000000e+00 
3.00000000e+00 4.66666651e+00 0.00000000e+00 
0.00000000e+00 5.00000000e+00 0.00000000e+00 
1.00000000e+00 5.00000000e+00 0.00000000e+00 
2.00000000e+00 5.00000000e+00 0.00000000e+00 
3.00000000e+00 5.00000000e+00 0.00000000e+00 

        </DataArray>
      </Points>
      <Cells>
        <DataArray type="Int32" Name="connectivity" format="ascii">
0 1 5 4
4 5 9 8
8 9 13 12
1 2 6 5
5 6 10 9
9 10 14 13
2 3 7 6
6 7 11 10
10 11 15 14

        </DataArray>
        <DataArray type="Int32" Name="offsets" format="ascii">
4 8 12 16 20 24 28 32 36 
        </DataArray>
        <DataArray type="UInt8" Name="types" format="ascii">
9 9 9 9 9 9 9 9 9 
        </DataArray>
      </Cells>
      <PointData>
        <DataArray type="Float64" Name="u">
          2.00000000e+02 2.03534902e+02 1.97040199e+02 2.01832804e+02 2.22222222e+02 2.27024686e+02 2.19091042e+02 2.26518012e+02 2.22222222e+02 2.27024686e+02 2.19091042e+02 2.26518012e+02 2.00000000e+02 2.03534902e+02 1.97040199e+02 2.01832804e+02 
        </DataArray>
        <DataArray type="Float64" Name="v">
          0.00000000e+00 3.71954928e-02 2.85774580e-01 1.24347863e-02 0.00000000e+00 1.85218204e-02 3.79133454e-02 2.67732092e-01 0.00000000e+00 -1.85218204e-02 -3.79133452e-02 -2.67732092e-01 0.00000000e+00 -3.71954928e-02 -2.85774580e-01 -1.24347868e-02 
        </DataArray>
        <DataArray type="Float64" Name="p">
          2.27394732e+04 1.51281068e+04 7.51674037e+03 -9.46260700e+01 2.27394732e+04 1.51281068e+04 7.51674037e+03 -9.46260700e+01 2.27394732e+04 1.51281068e+04 7.51674037e+03 -9.46260700e+01 2.27394732e+04 1.51281068e+04 7.51674037e+03 -9.46260700e+01 
        </DataArray>
      </PointData>
    </Piece>
    <Piece NumberOfPoints="16" NumberOfCells="9">
      <Points>
        <DataArray type="Float64" NumberOfComponents="3" format="ascii">
          0.00000000e+00 5.00000000e+00 0.00000000e+00 
1.00000000e+00 5.00000000e+00 0.00000000e+00 
2.00000000e+00 5.00000000e+00 0.00000000e+00 
3.00000000e+00 5.00000000e+00 0.00000000e+00 
0.00000000e+00 5.33333349e+00 0.00000000e+00 
1.00000000e+00 5.33333349e+00 0.00000000e+00 
2.00000000e+00 5.33333349e+00 0.00000000e+00 
3.00000000e+00 5.33333349e+00 0.00000000e+00 
0.00000000e+00 5.66666651e+00 0.00000000e+00 
1.00000000e+00 5.66666651e+00 0.00000000e+00 
2.00000000e+00 5.66666651e+00 0.00000000e+00 
3.00000000e+00 5.66666651e+00 0.00000000e+00 
0.00000000e+00 6.00000000e+00 0.00000000e+00 
1.00000000e+00 6.00000000e+00 0.00000000e+00 
2.00000000e+00 6.00000000e+00 0.00000000e+00 
3.00000000e+00 6.00000000e+00 0.00000000e+00 

        </DataArray>
      </Points>
      <Cells>
        <DataArray type="Int32" Name="connectivity" format="ascii">
0 1 5 4
4 5 9 8
8 9 13 12
1 2 6 5
5 6 10 9
9 10 14 13
2 3 7 6
6 7 11 10
10 11 15 14

        </DataArray>
        <DataArray type="Int32" Name="offsets" format="ascii">
4 8 12 16 20 24 28 32 36 
        </DataArray>
        <DataArray type="UInt8" Name="types" format="ascii">
9 9 9 9 9 9 9 9 9 
        </DataArray>
      </Cells>
      <PointData>
        <DataArray type="Float64" Name="u">
          2.00000000e+02 2.03534902e+02 1.97040199e+02 2.01832804e+02 1.55555556e+02 1.57222314e+02 1.53090711e+02 1.53740155e+02 8.88888889e+01 8.91078453e+01 8.74133352e+01 8.51866294e+01 0.00000000e+00 0.00000000e+00 0.00000000e+00 0.00000000e+00 
        </DataArray>
        <DataArray type="Float64" Name="v">
          0.00000000e+00 -3.71954928e-02 -2.85774580e-01 -1.24347868e-02 0.00000000e+00 -9.70333918e-03 -3.85223226e-01 2.24758648e-01 0.00000000e+00 -9.69271787e-04 -3.56066360e-01 6.28413780e-01 0.00000000e+00 0.00000000e+00 0.00000000e+00 0.00000000e+00 
        </DataArray>
        <DataArray type="Float64" Name="p">
          2.27407472e+04 1.51300829e+04 7.51941854e+03 -9.12458083e+01 2.27435429e+04 1.51327936e+04 7.52204434e+03 -8.87049479e+01 2.27463386e+04 1.51355043e+04 7.52467013e+03 -8.61640874e+01 2.27491342e+04 1.51382151e+04 7.52729592e+03 -8.36232270e+01 
        </DataArray>
      </PointData>
    </Piece>
    <Piece NumberOfPoints="16" NumberOfCells="9">
      <Points>
        <DataArray type="Float64" NumberOfComponents="3" format="ascii">
          3.00000000e+00 0.00000000e+00 0.00000000e+00 
4.00000000e+00 0.00000000e+00 0.00000000e+00 
5.00000000e+00 0.00000000e+00 0.00000000e+00 
6.00000000e+00 0.00000000e+00 0.00000000e+00 
3.00000000e+00 3.33333343e-01 0.00000000e+00 
4.00000000e+00 3.33333343e-01 0.00000000e+00 
5.00000000e+00 3.33333343e-01 0.00000000e+00 
6.00000000e+00 3.33333343e-01 0.00000000e+00 
3.00000000e+00 6.66666687e-01 0.00000000e+00 
4.00000000e+00 6.66666687e-01 0.00000000e+00 
5.00000000e+00 6.66666687e-01 0.00000000e+00 
6.00000000e+00 6.66666687e-01 0.00000000e+00 
3.00000000e+00 1.00000000e+00 0.00000000e+00 
4.00000000e+00 1.00000000e+00 0.00000000e+00 
5.00000000e+00 1.00000000e+00 0.00000000e+00 
6.00000000e+00 1.00000000e+00 0.00000000e+00 

        </DataArray>
      </Points>
      <Cells>
        <DataArray type="Int32" Name="connectivity" format="ascii">
0 1 5 4
4 5 9 8
8 9 13 12
1 2 6 5
5 6 10 9
9 10 14 13
2 3 7 6
6 7 11 10
10 11 15 14

        </DataArray>
        <DataArray type="Int32" Name="offsets" format="ascii">
4 8 12 16 20 24 28 32 36 
        </DataArray>
        <DataArray type="UInt8" Name="types" format="ascii">
9 9 9 9 9 9 9 9 9 
        </DataArray>
      </Cells>
      <PointData>
        <DataArray type="Float64" Name="u">
          0.00000000e+00 0.00000000e+00 0.00000000e+00 0.00000000e+00 0.00000000e+00 -1.39041680e+01 -4.56523419e+00 -4.16066652e+00 0.00000000e+00 -2.28944982e+01 -5.04728798e+00 -4.00863505e+00 0.00000000e+00 -2.70549699e+01 -1.88344983e+00 4.36308938e-01 
        </DataArray>
        <DataArray type="Float64" Name="v">
          0.00000000e+00 0.00000000e+00 0.00000000e+00 0.00000000e+00 0.00000000e+00 3.86109617e-01 -1.46048998e-04 -5.53249718e-01 0.00000000e+00 1.09704689e+00 -2.57618242e-01 -1.46538797e+00 0.00000000e+00 2.16807976e+00 -7.26165035e-01 -2.72097112e+00 
        </DataArray>
        <DataArray type="Float64" Name="p">
          -9.54912435e+02 6.54986996e+02 2.26488643e+03 3.87478586e+03 -9.39784329e+02 6.60011869e+02 2.25980807e+03 3.85960427e+03 -9.24656223e+02 6.65036743e+02 2.25472971e+03 3.84442267e+03 -9.09528117e+02 6.70061616e+02 2.24965135e+03 3.82924108e+03 
        </DataArray>
      </PointData>
    </Piece>
    <Piece NumberOfPoints="16" NumberOfCells="9">
      <Points>
        <DataArray type="Float64" NumberOfComponents="3" format="ascii">
          3.00000000e+00 1.00000000e+00 0.00000000e+00 
4.00000000e+00 1.00000000e+00 0.00000000e+00 
5.00000000e+00 1.00000000e+00 0.00000000e+00 
6.00000000e+00 1.00000000e+00 0.00000000e+00 
3.00000000e+00 1.33333337e+00 0.00000000e+00 
4.00000000e+00 1.33333337e+00 0.00000000e+00 
5.00000000e+00 1.33333337e+00 0.00000000e+00 
6.00000000e+00 1.33333337e+00 0.00000000e+00 
3.00000000e+00 1.66666663e+00 0.00000000e+00 
4.00000000e+00 1.66666663e+00 0.00000000e+00 
5.00000000e+00 1.66666663e+00 0.00000000e+00 
6.00000000e+00 1.66666663e+00 0.00000000e+00 
3.00000000e+00 2.00000000e+00 0.00000000e+00 
4.00000000e+00 2.00000000e+00 0.00000000e+00 
5.00000000e+00 2.00000000e+00 0.00000000e+00 
6.00000000e+00 2.00000000e+00 0.00000000e+00 

        </DataArray>
      </Points>
      <Cells>
        <DataArray type="Int32" Name="connectivity" format="ascii">
0 1 5 4
4 5 9 8
8 9 13 12
1 2 6 5
5 6 10 9
9 10 14 13
2 3 7 6
6 7 11 10
10 11 15 14

        </DataArray>
        <DataArray type="Int32" Name="offsets" format="ascii">
4 8 12 16 20 24 28 32 36 
        </DataArray>
        <DataArray type="UInt8" Name="types" format="ascii">
9 9 9 9 9 9 9 9 9 
        </DataArray>
      </Cells>
      <PointData>
        <DataArray type="Float64" Name="u">
          0.00000000e+00 -2.70549699e+01 -1.88344983e+00 4.36308938e-01 0.00000000e+00 -2.62811385e+01 4.51480720e+00 8.95198006e+00 0.00000000e+00 -2.01202292e+01 1.40784552e+01 2.08030676e+01 0.00000000e+00 -7.82868144e+00 2.70762511e+01 3.48897895e+01 
        </DataArray>
        <DataArray type="Float64" Name="v">
          0.00000000e+00 2.16807976e+00 -7.26165035e-01 -2.72097112e+00 0.00000000e+00 3.15059195e+00 -1.46546260e+00 -4.21056170e+00 0.00000000e+00 3.66416941e+00 -2.35322210e+00 -5.73217445e+00 0.00000000e+00 3.64699683e+00 -3.52985323e+00 -7.05274050e+00 
        </DataArray>
        <DataArray type="Float64" Name="p">
          -9.09933692e+02 6.68566302e+02 2.24706630e+03 3.82556629e+03 -9.25418715e+02 6.57250448e+02 2.23991961e+03 3.82258877e+03 -9.40903738e+02 6.45934594e+02 2.23277293e+03 3.81961126e+03 -9.56388761e+02 6.34618741e+02 2.22562624e+03 3.81663374e+03 
        </DataArray>
      </PointData>
    </Piece>
    <Piece NumberOfPoints="16" NumberOfCells="9">
      <Points>
        <DataArray type="Float64" NumberOfComponents="3" format="ascii">
          3.00000000e+00 2.00000000e+00 0.00000000e+00 
4.00000000e+00 2.00000000e+00 0.00000000e+00 
5.00000000e+00 2.00000000e+00 0.00000000e+00 
6.00000000e+00 2.00000000e+00 0.00000000e+00 
3.00000000e+00 2.33333325e+00 0.00000000e+00 
4.00000000e+00 2.33333325e+00 0.00000000e+00 
5.00000000e+00 2.33333325e+00 0.00000000e+00 
6.00000000e+00 2.33333325e+00 0.00000000e+00 
3.00000000e+00 2.66666675e+00 0.00000000e+00 
4.00000000e+00 2.66666675e+00 0.00000000e+00 
5.00000000e+00 2.66666675e+00 0.00000000e+00 
6.00000000e+00 2.66666675e+00 0.00000000e+00 
3.00000000e+00 3.00000000e+00 0.00000000e+00 
4.00000000e+00 3.00000000e+00 0.00000000e+00 
5.00000000e+00 3.00000000e+00 0.00000000e+00 
6.00000000e+00 3.00000000e+00 0.00000000e+00 

        </DataArray>
      </Points>
      <Cells>
        <DataArray type="Int32" Name="connectivity" format="ascii">
0 1 5 4
4 5 9 8
8 9 13 12
1 2 6 5
5 6 10 9
9 10 14 13
2 3 7 6
6 7 11 10
10 11 15 14

        </DataArray>
        <DataArray type="Int32" Name="offsets" format="ascii">
4 8 12 16 20 24 28 32 36 
        </DataArray>
        <DataArray type="UInt8" Name="types" format="ascii">
9 9 9 9 9 9 9 9 9 
        </DataArray>
      </Cells>
      <PointData>
        <DataArray type="Float64" Name="u">
          0.00000000e+00 -7.82868144e+00 2.70762511e+01 3.48897895e+01 0.00000000e+00 1.16006980e+01 4.38616014e+01 4.99984278e+01 0.00000000e+00 3.91900947e+01 6.41394616e+01 6.54905814e+01 0.00000000e+00 7.52290441e+01 8.59370220e+01 8.23705558e+01 
        </DataArray>
        <DataArray type="Float64" Name="v">
          0.00000000e+00 3.64699683e+00 -3.52985323e+00 -7.05274050e+00 0.00000000e+00 2.65228282e+00 -4.84488965e+00 -7.71120625e+00 0.00000000e+00 7.27415951e-02 -5.86211310e+00 -7.08684922e+00 0.00000000e+00 -4.12266900e+00 -6.64371363e+00 -5.31732000e+00 
        </DataArray>
        <DataArray type="Float64" Name="p">
          -9.51813834e+02 6.34867783e+02 2.22154940e+03 3.80823102e+03 -1.00863097e+03 6.14269691e+02 2.23717035e+03 3.86007101e+03 -1.06544810e+03 5.93671598e+02 2.25279130e+03 3.91191100e+03 -1.12226523e+03 5.73073506e+02 2.26841225e+03 3.96375099e+03 
        </DataArray>
      </PointData>
    </Piece>
    <Piece NumberOfPoints="16" NumberOfCells="9">
      <Points>
        <DataArray type="Float64" NumberOfComponents="3" format="ascii">
          3.00000000e+00 3.00000000e+00 0.00000000e+00 
4.00000000e+00 3.00000000e+00 0.00000000e+00 
5.00000000e+00 3.00000000e+00 0.00000000e+00 
6.00000000e+00 3.00000000e+00 0.00000000e+00 
3.00000000e+00 3.33333325e+00 0.00000000e+00 
4.00000000e+00 3.33333325e+00 0.00000000e+00 
5.00000000e+00 3.33333325e+00 0.00000000e+00 
6.00000000e+00 3.33333325e+00 0.00000000e+00 
3.00000000e+00 3.66666675e+00 0.00000000e+00 
4.00000000e+00 3.66666675e+00 0.00000000e+00 
5.00000000e+00 3.66666675e+00 0.00000000e+00 
6.00000000e+00 3.66666675e+00 0.00000000e+00 
3.00000000e+00 4.00000000e+00 0.00000000e+00 
4.00000000e+00 4.00000000e+00 0.00000000e+00 
5.00000000e+00 4.00000000e+00 0.00000000e+00 
6.00000000e+00 4.00000000e+00 0.00000000e+00 

        </DataArray>
      </Points>
      <Cells>
        <DataArray type="Int32" Name="connectivity" format="ascii">
0 1 5 4
4 5 9 8
8 9 13 12
1 2 6 5
5 6 10 9
9 10 14 13
2 3 7 6
6 7 11 10
10 11 15 14

        </DataArray>
        <DataArray type="Int32" Name="offsets" format="ascii">
4 8 12 16 20 24 28 32 36 
        </DataArray>
        <DataArray type="UInt8" Name="types" format="ascii">
9 9 9 9 9 9 9 9 9 
        </DataArray>
      </Cells>
      <PointData>
        <DataArray type="Float64" Name="u">
          0.00000000e+00 7.52290441e+01 8.59370220e+01 8.23705558e+01 8.51866294e+01 1.05124999e+02 1.10171629e+02 9.15094273e+01 1.53740155e+02 1.37032531e+02 1.29701484e+02 1.02328750e+02 2.01832804e+02 1.63012547e+02 1.43555609e+02 1.11343343e+02 
        </DataArray>
        <DataArray type="Float64" Name="v">
          0.00000000e+00 -4.12266900e+00 -6.64371363e+00 -5.31732000e+00 -6.28413780e-01 -7.25217950e+00 -6.58903387e+00 -2.93351031e+00 -2.24758648e-01 -7.40720710e+00 -5.81492853e+00 -1.20260893e+00 1.24347863e-02 -5.40187686e+00 -3.87049954e+00 -2.52791650e-01 
        </DataArray>
        <DataArray type="Float64" Name="p">
          -1.13752964e+03 5.71051102e+02 2.27963184e+03 3.98821258e+03 -9.98633577e+02 6.43242970e+02 2.28511952e+03 3.92699607e+03 -8.59737516e+02 7.15434839e+02 2.29060719e+03 3.86577955e+03 -7.20841454e+02 7.87626707e+02 2.29609487e+03 3.80456303e+03 
        </DataArray>
      </PointData>
    </Piece>
    <Piece NumberOfPoints="16" NumberOfCells="9">
      <Points>
        <DataArray type="Float64" NumberOfComponents="3" format="ascii">
          3.00000000e+00 4.00000000e+00 0.00000000e+00 
4.00000000e+00 4.00000000e+00 0.00000000e+00 
5.00000000e+00 4.00000000e+00 0.00000000e+00 
6.00000000e+00 4.00000000e+00 0.00000000e+00 
3.00000000e+00 4.33333349e+00 0.00000000e+00 
4.00000000e+00 4.33333349e+00 0.00000000e+00 
5.00000000e+00 4.33333349e+00 0.00000000e+00 
6.00000000e+00 4.33333349e+00 0.00000000e+00 
3.00000000e+00 4.66666651e+00 0.00000000e+00 
4.00000000e+00 4.66666651e+00 0.00000000e+00 
5.00000000e+00 4.66666651e+00 0.00000000e+00 
6.00000000e+00 4.66666651e+00 0.00000000e+00 
3.00000000e+00 5.00000000e+00 0.00000000e+00 
4.00000000e+00 5.00000000e+00 0.00000000e+00 
5.00000000e+00 5.00000000e+00 0.00000000e+00 
6.00000000e+00 5.00000000e+00 0.00000000e+00 

        </DataArray>
      </Points>
      <Cells>
        <DataArray type="Int32" Name="connectivity" format="ascii">
0 1 5 4
4 5 9 8
8 9 13 12
1 2 6 5
5 6 10 9
9 10 14 13
2 3 7 6
6 7 11 10
10 11 15 14

        </DataArray>
        <DataArray type="Int32" Name="offsets" format="ascii">
4 8 12 16 20 24 28 32 36 
        </DataArray>
        <DataArray type="UInt8" Name="types" format="ascii">
9 9 9 9 9 9 9 9 9 
        </DataArray>
      </Cells>
      <PointData>
        <DataArray type="Float64" Name="u">
          2.01832804e+02 1.63012547e+02 1.43555609e+02 1.11343343e+02 2.26518012e+02 1.77317512e+02 1.50717035e+02 1.16393736e+02 2.26518012e+02 1.77317512e+02 1.50717035e+02 1.16393736e+02 2.01832804e+02 1.63012547e+02 1.43555609e+02 1.11343343e+02 
        </DataArray>
        <DataArray type="Float64" Name="v">
          1.24347863e-02 -5.40187686e+00 -3.87049954e+00 -2.52791650e-01 2.67732092e-01 -1.56701611e+00 -1.40661079e+00 -7.87630839e-02 -2.67732092e-01 1.56701611e+00 1.40661078e+00 7.87630841e-02 -1.24347868e-02 5.40187686e+00 3.87049954e+00 2.52791650e-01 
        </DataArray>
        <DataArray type="Float64" Name="p">
          -6.49737350e+02 8.20765357e+02 2.29126806e+03 3.76177077e+03 -6.49737350e+02 8.20765357e+02 2.29126806e+03 3.76177077e+03 -6.49737350e+02 8.20765357e+02 2.29126806e+03 3.76177077e+03 -6.49737350e+02 8.20765357e+02 2.29126806e+03 3.76177077e+03 
        </DataArray>
      </PointData>
    </Piece>
    <Piece NumberOfPoints="16" NumberOfCells="9">
      <Points>
        <DataArray type="Float64" NumberOfComponents="3" format="ascii">
          3.00000000e+00 5.00000000e+00 0.00000000e+00 
4.00000000e+00 5.00000000e+00 0.00000000e+00 
5.00000000e+00 5.00000000e+00 0.00000000e+00 
6.00000000e+00 5.00000000e+00 0.00000000e+00 
3.00000000e+00 5.33333349e+00 0.00000000e+00 
4.00000000e+00 5.33333349e+00 0.00000000e+00 
5.00000000e+00 5.33333349e+00 0.00000000e+00 
6.00000000e+00 5.33333349e+00 0.00000000e+00 
3.00000000e+00 5.66666651e+00 0.00000000e+00 
4.00000000e+00 5.66666651e+00 0.00000000e+00 
5.00000000e+00 5.66666651e+00 0.00000000e+00 
6.00000000e+00 5.66666651e+00 0.00000000e+00 
3.00000000e+00 6.00000000e+00 0.00000000e+00 
4.00000000e+00 6.00000000e+00 0.00000000e+00 
5.00000000e+00 6.00000000e+00 0.00000000e+00 
6.00000000e+00 6.00000000e+00 0.00000000e+00 

        </DataArray>
      </Points>
      <Cells>
        <DataArray type="Int32" Name="connectivity" format="ascii">
0 1 5 4
4 5 9 8
8 9 13 12
1 2 6 5
5 6 10 9
9 10 14 13
2 3 7 6
6 7 11 10
10 11 15 14

        </DataArray>
        <DataArray type="Int32" Name="offsets" format="ascii">
4 8 12 16 20 24 28 32 36 
        </DataArray>
        <DataArray type="UInt8" Name="types" format="ascii">
9 9 9 9 9 9 9 9 9 
        </DataArray>
      </Cells>
      <PointData>
        <DataArray type="Float64" Name="u">
          2.01832804e+02 1.63012547e+02 1.43555609e+02 1.11343343e+02 1.53740155e+02 1.37032531e+02 1.29701484e+02 1.02328750e+02 8.51866294e+01 1.05124999e+02 1.10171629e+02 9.15094273e+01 0.00000000e+00 7.52290441e+01 8.59370220e+01 8.23705558e+01 
        </DataArray>
        <DataArray type="Float64" Name="v">
          -1.24347868e-02 5.40187686e+00 3.87049954e+00 2.52791650e-01 2.24758648e-01 7.40720710e+00 5.81492853e+00 1.20260893e+00 6.28413780e-01 7.25217950e+00 6.58903387e+00 2.93351031e+00 0.00000000e+00 4.12266900e+00 6.64371363e+00 5.31732000e+00 
        </DataArray>
        <DataArray type="Float64" Name="p">
          -7.20841454e+02 7.87626707e+02 2.29609487e+03 3.80456303e+03 -8.59737516e+02 7.15434839e+02 2.29060719e+03 3.86577955e+03 -9.98633577e+02 6.43242970e+02 2.28511952e+03 3.92699607e+03 -1.13752964e+03 5.71051102e+02 2.27963184e+03 3.98821258e+03 
        </DataArray>
      </PointData>
    </Piece>
    <Piece NumberOfPoints="16" NumberOfCells="9">
      <Points>
        <DataArray type="Float64" NumberOfComponents="3" format="ascii">
          3.00000000e+00 6.00000000e+00 0.00000000e+00 
4.00000000e+00 6.00000000e+00 0.00000000e+00 
5.00000000e+00 6.00000000e+00 0.00000000e+00 
6.00000000e+00 6.00000000e+00 0.00000000e+00 
3.00000000e+00 6.33333349e+00 0.00000000e+00 
4.00000000e+00 6.33333349e+00 0.00000000e+00 
5.00000000e+00 6.33333349e+00 0.00000000e+00 
6.00000000e+00 6.33333349e+00 0.00000000e+00 
3.00000000e+00 6.66666651e+00 0.00000000e+00 
4.00000000e+00 6.66666651e+00 0.00000000e+00 
5.00000000e+00 6.66666651e+00 0.00000000e+00 
6.00000000e+00 6.66666651e+00 0.00000000e+00 
3.00000000e+00 7.00000000e+00 0.00000000e+00 
4.00000000e+00 7.00000000e+00 0.00000000e+00 
5.00000000e+00 7.00000000e+00 0.00000000e+00 
6.00000000e+00 7.00000000e+00 0.00000000e+00 

        </DataArray>
      </Points>
      <Cells>
        <DataArray type="Int32" Name="connectivity" format="ascii">
0 1 5 4
4 5 9 8
8 9 13 12
1 2 6 5
5 6 10 9
9 10 14 13
2 3 7 6
6 7 11 10
10 11 15 14

        </DataArray>
        <DataArray type="Int32" Name="offsets" format="ascii">
4 8 12 16 20 24 28 32 36 
        </DataArray>
        <DataArray type="UInt8" Name="types" format="ascii">
9 9 9 9 9 9 9 9 9 
        </DataArray>
      </Cells>
      <PointData>
        <DataArray type="Float64" Name="u">
          0.00000000e+00 7.52290441e+01 8.59370220e+01 8.23705558e+01 0.00000000e+00 3.91900947e+01 6.41394616e+01 6.54905814e+01 0.00000000e+00 1.16006980e+01 4.38616014e+01 4.99984278e+01 0.00000000e+00 -7.82868144e+00 2.70762511e+01 3.48897895e+01 
        </DataArray>
        <DataArray type="Float64" Name="v">
          0.00000000e+00 4.12266900e+00 6.64371363e+00 5.31732000e+00 0.00000000e+00 -7.27415952e-02 5.86211310e+00 7.08684922e+00 0.00000000e+00 -2.65228282e+00 4.84488965e+00 7.71120625e+00 0.00000000e+00 -3.64699683e+00 3.52985323e+00 7.05274050e+00 
        </DataArray>
        <DataArray type="Float64" Name="p">
          -1.12226523e+03 5.73073506e+02 2.26841225e+03 3.96375099e+03 -1.06544810e+03 5.93671598e+02 2.25279130e+03 3.91191100e+03 -1.00863097e+03 6.14269691e+02 2.23717035e+03 3.86007101e+03 -9.51813834e+02 6.34867783e+02 2.22154940e+03 3.80823102e+03 
        </DataArray>
      </PointData>
    </Piece>
    <Piece NumberOfPoints="16" NumberOfCells="9">
      <Points>
        <DataArray type="Float64" NumberOfComponents="3" format="ascii">
          3.00000000e+00 7.00000000e+00 0.00000000e+00 
4.00000000e+00 7.00000000e+00 0.00000000e+00 
5.00000000e+00 7.00000000e+00 0.00000000e+00 
6.00000000e+00 7.00000000e+00 0.00000000e+00 
3.00000000e+00 7.33333349e+00 0.00000000e+00 
4.00000000e+00 7.33333349e+00 0.00000000e+00 
5.00000000e+00 7.33333349e+00 0.00000000e+00 
6.00000000e+00 7.33333349e+00 0.00000000e+00 
3.00000000e+00 7.66666651e+00 0.00000000e+00 
4.00000000e+00 7.66666651e+00 0.00000000e+00 
5.00000000e+00 7.66666651e+00 0.00000000e+00 
6.00000000e+00 7.66666651e+00 0.00000000e+00 
3.00000000e+00 8.00000000e+00 0.00000000e+00 
4.00000000e+00 8.00000000e+00 0.00000000e+00 
5.00000000e+00 8.00000000e+00 0.00000000e+00 
6.00000000e+00 8.00000000e+00 0.00000000e+00 

        </DataArray>
      </Points>
      <Cells>
        <DataArray type="Int32" Name="connectivity" format="ascii">
0 1 5 4
4 5 9 8
8 9 13 12
1 2 6 5
5 6 10 9
9 10 14 13
2 3 7 6
6 7 11 10
10 11 15 14

        </DataArray>
        <DataArray type="Int32" Name="offsets" format="ascii">
4 8 12 16 20 24 28 32 36 
        </DataArray>
        <DataArray type="UInt8" Name="types" format="ascii">
9 9 9 9 9 9 9 9 9 
        </DataArray>
      </Cells>
      <PointData>
        <DataArray type="Float64" Name="u">
          0.00000000e+00 -7.82868144e+00 2.70762511e+01 3.48897895e+01 0.00000000e+00 -2.01202292e+01 1.40784552e+01 2.08030676e+01 0.00000000e+00 -2.62811385e+01 4.51480720e+00 8.95198006e+00 0.00000000e+00 -2.70549699e+01 -1.88344983e+00 4.36308938e-01 
        </DataArray>
        <DataArray type="Float64" Name="v">
          0.00000000e+00 -3.64699683e+00 3.52985323e+00 7.05274050e+00 0.00000000e+00 -3.66416941e+00 2.35322210e+00 5.73217445e+00 0.00000000e+00 -3.15059195e+00 1.46546260e+00 4.21056170e+00 0.00000000e+00 -2.16807976e+00 7.26165035e-01 2.72097112e+00 
        </DataArray>
        <DataArray type="Float64" Name="p">
          -9.56388761e+02 6.34618741e+02 2.22562624e+03 3.81663374e+03 -9.40903738e+02 6.45934594e+02 2.23277293e+03 3.81961126e+03 -9.25418715e+02 6.57250448e+02 2.23991961e+03 3.82258877e+03 -9.09933692e+02 6.68566302e+02 2.24706630e+03 3.82556629e+03 
        </DataArray>
      </PointData>
    </Piece>
    <Piece NumberOfPoints="16" NumberOfCells="9">
      <Points>
        <DataArray type="Float64" NumberOfComponents="3" format="ascii">
          3.00000000e+00 8.00000000e+00 0.00000000e+00 
4.00000000e+00 8.00000000e+00 0.00000000e+00 
5.00000000e+00 8.00000000e+00 0.00000000e+00 
6.00000000e+00 8.00000000e+00 0.00000000e+00 
3.00000000e+00 8.33333302e+00 0.00000000e+00 
4.00000000e+00 8.33333302e+00 0.00000000e+00 
5.00000000e+00 8.33333302e+00 0.00000000e+00 
6.00000000e+00 8.33333302e+00 0.00000000e+00 
3.00000000e+00 8.66666698e+00 0.00000000e+00 
4.00000000e+00 8.66666698e+00 0.00000000e+00 
5.00000000e+00 8.66666698e+00 0.00000000e+00 
6.00000000e+00 8.66666698e+00 0.00000000e+00 
3.00000000e+00 9.00000000e+00 0.00000000e+00 
4.00000000e+00 9.00000000e+00 0.00000000e+00 
5.00000000e+00 9.00000000e+00 0.00000000e+00 
6.00000000e+00 9.00000000e+00 0.00000000e+00 

        </DataArray>
      </Points>
      <Cells>
        <DataArray type="Int32" Name="connectivity" format="ascii">
0 1 5 4
4 5 9 8
8 9 13 12
1 2 6 5
5 6 10 9
9 10 14 13
2 3 7 6
6 7 11 10
10 11 15 14

        </DataArray>
        <DataArray type="Int32" Name="offsets" format="ascii">
4 8 12 16 20 24 28 32 36 
        </DataArray>
        <DataArray type="UInt8" Name="types" format="ascii">
9 9 9 9 9 9 9 9 9 
        </DataArray>
      </Cells>
      <PointData>
        <DataArray type="Float64" Name="u">
          0.00000000e+00 -2.70549699e+01 -1.88344983e+00 4.36308938e-01 0.00000000e+00 -2.28944982e+01 -5.04728798e+00 -4.00863505e+00 0.00000000e+00 -1.39041680e+01 -4.56523419e+00 -4.16066652e+00 0.00000000e+00 0.00000000e+00 0.00000000e+00 0.00000000e+00 
        </DataArray>
        <DataArray type="Float64" Name="v">
          0.00000000e+00 -2.16807976e+00 7.26165035e-01 2.72097112e+00 0.00000000e+00 -1.09704689e+00 2.57618242e-01 1.46538797e+00 0.00000000e+00 -3.86109617e-01 1.46049015e-04 5.53249718e-01 0.00000000e+00 0.00000000e+00 0.00000000e+00 0.00000000e+00 
        </DataArray>
        <DataArray type="Float64" Name="p">
          -9.09528117e+02 6.70061616e+02 2.24965135e+03 3.82924108e+03 -9.24656223e+02 6.65036743e+02 2.25472971e+03 3.84442267e+03 -9.39784329e+02 6.60011869e+02 2.25980807e+03 3.85960427e+03 -9.54912435e+02 6.54986996e+02 2.26488643e+03 3.87478586e+03 
        </DataArray>
      </PointData>
    </Piece>
    <Piece NumberOfPoints="16" NumberOfCells="9">
      <Points>
        <DataArray type="Float64" NumberOfComponents="3" format="ascii">
          6.00000000e+00 0.00000000e+00 0.00000000e+00 
7.00000000e+00 0.00000000e+00 0.00000000e+00 
8.00000000e+00 0.00000000e+00 0.00000000e+00 
9.00000000e+00 0.00000000e+00 0.00000000e+00 
6.00000000e+00 3.33333343e-01 0.00000000e+00 
7.00000000e+00 3.33333343e-01 0.00000000e+00 
8.00000000e+00 3.33333343e-01 0.00000000e+00 
9.00000000e+00 3.33333343e-01 0.00000000e+00 
6.00000000e+00 6.66666687e-01 0.00000000e+00 
7.00000000e+00 6.66666687e-01 0.00000000e+00 
8.00000000e+00 6.66666687e-01 0.00000000e+00 
9.00000000e+00 6.66666687e-01 0.00000000e+00 
6.00000000e+00 1.00000000e+00 0.00000000e+00 
7.00000000e+00 1.00000000e+00 0.00000000e+00 
8.00000000e+00 1.00000000e+00 0.00000000e+00 
9.00000000e+00 1.00000000e+00 0.00000000e+00 

        </DataArray>
      </Points>
      <Cells>
        <DataArray type="Int32" Name="connectivity" format="ascii">
0 1 5 4
4 5 9 8
8 9 13 12
1 2 6 5
5 6 10 9
9 10 14 13
2 3 7 6
6 7 11 10
10 11 15 14

        </DataArray>
        <DataArray type="Int32" Name="offsets" format="ascii">
4 8 12 16 20 24 28 32 36 
        </DataArray>
        <DataArray type="UInt8" Name="types" format="ascii">
9 9 9 9 9 9 9 9 9 
        </DataArray>
      </Cells>
      <PointData>
        <DataArray type="Float64" Name="u">
          0.00000000e+00 0.00000000e+00 0.00000000e+00 0.00000000e+00 -4.16066652e+00 5.18137416e+00 1.54035308e+00 1.14211870e+01 -4.00863505e+00 1.15717106e+01 5.28851703e+00 2.07724572e+01 4.36308938e-01 1.91972188e+01 1.10129150e+01 2.86308874e+01 
        </DataArray>
        <DataArray type="Float64" Name="v">