<?xml version="1.0"?>
<VTKFile type="UnstructuredGrid" version="0.1" byte_order="LittleEndian">
  <UnstructuredGrid>
    <Piece NumberOfPoints="16" NumberOfCells="9">
      <Points>
        <DataArray type="Float64" NumberOfComponents="3" format="ascii">
          0.00000000e+00 3.00000000e+00 0.00000000e+00 
1.00000000e+00 3.00000000e+00 0.00000000e+00 
2.00000000e+00 3.00000000e+00 0.00000000e+00 
3.00000000e+00 3.00000000e+00 0.00000000e+00 
0.00000000e+00 3.33333325e+00 0.00000000e+00 
1.00000000e+00 3.33333325e+00 0.00000000e+00 
2.00000000e+00 3.33333325e+00 0.00000000e+00 
3.00000000e+00 3.33333325e+00 0.00000000e+00 
0.00000000e+00 3.66666675e+00 0.00000000e+00 
1.00000000e+00 3.66666675e+00 0.00000000e+00 
2.00000000e+00 3.66666675e+00 0.00000000e+00 
3.00000000e+00 3.66666675e+00 0.00000000e+00 
0.00000000e+00 4.00000000e+00 0.00000000e+00 
1.00000000e+00 4.00000000e+00 0.00000000e+00 
2.00000000e+00 4.00000000e+00 0.00000000e+00 
3.00000000e+00 4.00000000e+00 0.00000000e+00 

        </DataArray>
      </Points>
      <Cells>
        <DataArray type="Int32" Name="connectivity" format="ascii">
0 1 5 4
4 5 9 8
8 9 13 12
1 2 6 5
5 6 10 9
9 10 14 13
2 3 7 6
6 7 11 10
10 11 15 14

        </DataArray>
        <DataArray type="Int32" Name="offsets" format="ascii">
4 8 12 16 20 24 28 32 36 
        </DataArray>
        <DataArray type="UInt8" Name="types" format="ascii">
9 9 9 9 9 9 9 9 9 
        </DataArray>
      </Cells>
      <PointData>
        <DataArray type="Float64" Name="u">
          0.00000000e+00 0.00000000e+00 0.00000000e+00 0.00000000e+00 8.88888889e+01 9.43716108e+01 9.20264975e+01 1.04842594e+02 1.55555556e+02 1.59823760e+02 1.58858053e+02 1.66597990e+02 2.00000000e+02 2.02439174e+02 2.02254707e+02 2.07313567e+02 
        </DataArray>
        <DataArray type="Float64" Name="v">
          0.00000000e+00 0.00000000e+00 0.00000000e+00 0.00000000e+00 0.00000000e+00 -1.53377915e+00 -2.24487829e+00 -4.39363175e+00 0.00000000e+00 -1.05581867e+00 -2.56615987e+00 -4.38379111e+00 0.00000000e+00 -2.73680319e+00 -4.69741419e+00 -7.13134316e+00 
        </DataArray>
        <DataArray type="Float64" Name="p">
          -1.60005097e+03 -2.33552268e+03 -3.07099439e+03 -3.80646610e+03 -1.56181421e+03 -2.28502925e+03 -3.00824429e+03 -3.73145934e+03 -1.52357744e+03 -2.23453582e+03 -2.94549419e+03 -3.65645257e+03 -1.48534068e+03 -2.18404239e+03 -2.88274409e+03 -3.58144580e+03 
        </DataArray>
      </PointData>
    </Piece>
    <Piece NumberOfPoints="16" NumberOfCells="9">
      <Points>
        <DataArray type="Float64" NumberOfComponents="3" format="ascii">
          0.00000000e+00 4.00000000e+00 0.00000000e+00 
1.00000000e+00 4.00000000e+00 0.00000000e+00 
2.00000000e+00 4.00000000e+00 0.00000000e+00 
3.00000000e+00 4.00000000e+00 0.00000000e+00 
0.00000000e+00 4.33333349e+00 0.00000000e+00 
1.00000000e+00 4.33333349e+00 0.00000000e+00 
2.00000000e+00 4.33333349e+00 0.00000000e+00 
3.00000000e+00 4.33333349e+00 0.00000000e+00 
0.00000000e+00 4.66666651e+00 0.00000000e+00 
1.00000000e+00 4.66666651e+00 0.00000000e+00 
2.00000000e+00 4.66666651e+00 0.00000000e+00 
3.00000000e+00 4.66666651e+00 0.00000000e+00 
0.00000000e+00 5.00000000e+00 0.00000000e+00 
1.00000000e+00 5.00000000e+00 0.00000000e+00 
2.00000000e+00 5.00000000e+00 0.00000000e+00 
3.00000000e+00 5.00000000e+00 0.00000000e+00 

        </DataArray>
      </Points>
      <Cells>
        <DataArray type="Int32" Name="connectivity" format="ascii">
0 1 5 4
4 5 9 8
8 9 13 12
1 2 6 5
5 6 10 9
9 10 14 13
2 3 7 6
6 7 11 10
10 11 15 14

        </DataArray>
        <DataArray type="Int32" Name="offsets" format="ascii">
4 8 12 16 20 24 28 32 36 
        </DataArray>
        <DataArray type="UInt8" Name="types" format="ascii">
9 9 9 9 9 9 9 9 9 
        </DataArray>
      </Cells>
      <PointData>
        <DataArray type="Float64" Name="u">
          2.00000000e+02 2.02439174e+02 2.02254707e+02 2.07313567e+02 2.22222222e+02 2.23074161e+02 2.22925993e+02 2.24254794e+02 2.22222222e+02 2.21290969e+02 2.20997477e+02 2.19193678e+02 2.00000000e+02 1.97543361e+02 1.97357313e+02 1.92168806e+02 
        </DataArray>
        <DataArray type="Float64" Name="v">
          0.00000000e+00 -2.73680319e+00 -4.69741419e+00 -7.13134316e+00 0.00000000e+00 -3.14000056e+00 -5.55477589e+00 -7.30613830e+00 0.00000000e+00 -3.15319622e+00 -5.49181945e+00 -7.35892460e+00 0.00000000e+00 -2.60189660e+00 -4.71622507e+00 -6.31111590e+00 
        </DataArray>
        <DataArray type="Float64" Name="p">
          -1.45955444e+03 -2.15514921e+03 -2.85074397e+03 -3.54633874e+03 -1.21102658e+03 -1.95018564e+03 -2.68934469e+03 -3.42850375e+03 -9.62498716e+02 -1.74522207e+03 -2.52794542e+03 -3.31066877e+03 -7.13970854e+02 -1.54025850e+03 -2.36654614e+03 -3.19283378e+03 
        </DataArray>
      </PointData>
    </Piece>
    <Piece NumberOfPoints="16" NumberOfCells="9">
      <Points>
        <DataArray type="Float64" NumberOfComponents="3" format="ascii">
          0.00000000e+00 5.00000000e+00 0.00000000e+00 
1.00000000e+00 5.00000000e+00 0.00000000e+00 
2.00000000e+00 5.00000000e+00 0.00000000e+00 
3.00000000e+00 5.00000000e+00 0.00000000e+00 
0.00000000e+00 5.33333349e+00 0.00000000e+00 
1.00000000e+00 5.33333349e+00 0.00000000e+00 
2.00000000e+00 5.33333349e+00 0.00000000e+00 
3.00000000e+00 5.33333349e+00 0.00000000e+00 
0.00000000e+00 5.66666651e+00 0.00000000e+00 
1.00000000e+00 5.66666651e+00 0.00000000e+00 
2.00000000e+00 5.66666651e+00 0.00000000e+00 
3.00000000e+00 5.66666651e+00 0.00000000e+00 
0.00000000e+00 6.00000000e+00 0.00000000e+00 
1.00000000e+00 6.00000000e+00 0.00000000e+00 
2.00000000e+00 6.00000000e+00 0.00000000e+00 
3.00000000e+00 6.00000000e+00 0.00000000e+00 

        </DataArray>
      </Points>
      <Cells>
        <DataArray type="Int32" Name="connectivity" format="ascii">
0 1 5 4
4 5 9 8
8 9 13 12
1 2 6 5
5 6 10 9
9 10 14 13
2 3 7 6
6 7 11 10
10 11 15 14

        </DataArray>
        <DataArray type="Int32" Name="offsets" format="ascii">
4 8 12 16 20 24 28 32 36 
        </DataArray>
        <DataArray type="UInt8" Name="types" format="ascii">
9 9 9 9 9 9 9 9 9 
        </DataArray>
      </Cells>
      <PointData>
        <DataArray type="Float64" Name="u">
          2.00000000e+02 1.97543361e+02 1.97357313e+02 1.92168806e+02 1.55555556e+02 1.51736731e+02 1.52004305e+02 1.44319330e+02 8.88888889e+01 8.44352874e+01 8.53921176e+01 7.44700315e+01 0.00000000e+00 0.00000000e+00 0.00000000e+00 0.00000000e+00 
        </DataArray>
        <DataArray type="Float64" Name="v">
          0.00000000e+00 -2.60189660e+00 -4.71622507e+00 -6.31111590e+00 0.00000000e+00 -1.04309608e+00 -2.43788143e+00 -3.96831389e+00 0.00000000e+00 -1.32367109e+00 -2.38409096e+00 -2.72466469e+00 0.00000000e+00 0.00000000e+00 0.00000000e+00 0.00000000e+00 
        </DataArray>
        <DataArray type="Float64" Name="p">
          -6.96042136e+02 -1.51108969e+03 -2.32613724e+03 -3.14118480e+03 -6.48209807e+02 -1.46106855e+03 -2.27392729e+03 -3.08678604e+03 -6.00377477e+02 -1.41104741e+03 -2.22171734e+03 -3.03238727e+03 -5.52545148e+02 -1.36102627e+03 -2.16950739e+03 -2.97798851e+03 
        </DataArray>
      </PointData>
    </Piece>
    <Piece NumberOfPoints="16" NumberOfCells="9">
      <Points>
        <DataArray type="Float64" NumberOfComponents="3" format="ascii">
          3.00000000e+00 0.00000000e+00 0.00000000e+00 
4.00000000e+00 0.00000000e+00 0.00000000e+00 
5.00000000e+00 0.00000000e+00 0.00000000e+00 
6.00000000e+00 0.00000000e+00 0.00000000e+00 
3.00000000e+00 3.33333343e-01 0.00000000e+00 
4.00000000e+00 3.33333343e-01 0.00000000e+00 
5.00000000e+00 3.33333343e-01 0.00000000e+00 
6.00000000e+00 3.33333343e-01 0.00000000e+00 
3.00000000e+00 6.66666687e-01 0.00000000e+00 
4.00000000e+00 6.66666687e-01 0.00000000e+00 
5.00000000e+00 6.66666687e-01 0.00000000e+00 
6.00000000e+00 6.66666687e-01 0.00000000e+00 
3.00000000e+00 1.00000000e+00 0.00000000e+00 
4.00000000e+00 1.00000000e+00 0.00000000e+00 
5.00000000e+00 1.00000000e+00 0.00000000e+00 
6.00000000e+00 1.00000000e+00 0.00000000e+00 

        </DataArray>
      </Points>
      <Cells>
        <DataArray type="Int32" Name="connectivity" format="ascii">
0 1 5 4
4 5 9 8
8 9 13 12
1 2 6 5
5 6 10 9
9 10 14 13
2 3 7 6
6 7 11 10
10 11 15 14

        </DataArray>
        <DataArray type="Int32" Name="offsets" format="ascii">
4 8 12 16 20 24 28 32 36 
        </DataArray>
        <DataArray type="UInt8" Name="types" format="ascii">
9 9 9 9 9 9 9 9 9 
        </DataArray>
      </Cells>
      <PointData>
        <DataArray type="Float64" Name="u">
          0.00000000e+00 0.00000000e+00 0.00000000e+00 0.00000000e+00 0.00000000e+00 -2.70814531e+00 -5.15858127e+00 -8.43510377e+00 0.00000000e+00 -4.96248475e+00 -9.49323265e+00 -1.62253806e+01 0.00000000e+00 -6.52211816e+00 -1.23247679e+01 -2.02939840e+01 
        </DataArray>
        <DataArray type="Float64" Name="v">
          0.00000000e+00 0.00000000e+00 0.00000000e+00 0.00000000e+00 0.00000000e+00 7.19480073e-01 6.30135908e-01 4.93819753e-01 0.00000000e+00 2.16290758e+00 2.00473821e+00 1.53298365e+00 0.00000000e+00 4.76105643e+00 4.71394091e+00 3.00015369e+00 
        </DataArray>
        <DataArray type="Float64" Name="p">
          -4.45687846e+03 -4.44375551e+03 -4.43063256e+03 -4.41750961e+03 -4.45253779e+03 -4.43794416e+03 -4.42335052e+03 -4.40875689e+03 -4.44819712e+03 -4.43213280e+03 -4.41606849e+03 -4.40000417e+03 -4.44385645e+03 -4.42632145e+03 -4.40878645e+03 -4.39125145e+03 
        </DataArray>
      </PointData>
    </Piece>
    <Piece NumberOfPoints="16" NumberOfCells="9">
      <Points>
        <DataArray type="Float64" NumberOfComponents="3" format="ascii">
          3.00000000e+00 1.00000000e+00 0.00000000e+00 
4.00000000e+00 1.00000000e+00 0.00000000e+00 
5.00000000e+00 1.00000000e+00 0.00000000e+00 
6.00000000e+00 1.00000000e+00 0.00000000e+00 
3.00000000e+00 1.33333337e+00 0.00000000e+00 
4.00000000e+00 1.33333337e+00 0.00000000e+00 
5.00000000e+00 1.33333337e+00 0.00000000e+00 
6.00000000e+00 1.33333337e+00 0.00000000e+00 
3.00000000e+00 1.66666663e+00 0.00000000e+00 
4.00000000e+00 1.66666663e+00 0.00000000e+00 
5.00000000e+00 1.66666663e+00 0.00000000e+00 
6.00000000e+00 1.66666663e+00 0.00000000e+00 
3.00000000e+00 2.00000000e+00 0.00000000e+00 
4.00000000e+00 2.00000000e+00 0.00000000e+00 
5.00000000e+00 2.00000000e+00 0.00000000e+00 
6.00000000e+00 2.00000000e+00 0.00000000e+00 

        </DataArray>
      </Points>
      <Cells>
        <DataArray type="Int32" Name="connectivity" format="ascii">
0 1 5 4
4 5 9 8
8 9 13 12
1 2 6 5
5 6 10 9
9 10 14 13
2 3 7 6
6 7 11 10
10 11 15 14

        </DataArray>
        <DataArray type="Int32" Name="offsets" format="ascii">
4 8 12 16 20 24 28 32 36 
        </DataArray>
        <DataArray type="UInt8" Name="types" format="ascii">
9 9 9 9 9 9 9 9 9 
        </DataArray>
      </Cells>
      <PointData>
        <DataArray type="Float64" Name="u">
          0.00000000e+00 -6.52211816e+00 -1.23247679e+01 -2.02939840e+01 0.00000000e+00 -7.20452688e+00 -1.27973211e+01 -1.93625986e+01 0.00000000e+00 -6.86254036e+00 -1.03281388e+01 -1.29342246e+01 0.00000000e+00 -5.07669532e+00 -4.17953509e+00 -2.67899864e-01 
        </DataArray>
        <DataArray type="Float64" Name="v">
          0.00000000e+00 4.76105643e+00 4.71394091e+00 3.00015369e+00 0.00000000e+00 7.93305261e+00 7.37365935e+00 4.54876342e+00 0.00000000e+00 1.04117928e+01 9.08752124e+00 4.70395357e+00 0.00000000e+00 1.28352768e+01 9.64089025e+00 3.14742891e+00 
        </DataArray>
        <DataArray type="Float64" Name="p">
          -4.43721371e+03 -4.42479797e+03 -4.41238223e+03 -4.39996649e+03 -4.46111272e+03 -4.45643380e+03 -4.45175489e+03 -4.44707598e+03 -4.48501172e+03 -4.48806964e+03 -4.49112756e+03 -4.49418547e+03 -4.50891073e+03 -4.51970548e+03 -4.53050022e+03 -4.54129496e+03 
        </DataArray>
      </PointData>
    </Piece>
    <Piece NumberOfPoints="16" NumberOfCells="9">
      <Points>
        <DataArray type="Float64" NumberOfComponents="3" format="ascii">
          3.00000000e+00 2.00000000e+00 0.00000000e+00 
4.00000000e+00 2.00000000e+00 0.00000000e+00 
5.00000000e+00 2.00000000e+00 0.00000000e+00 
6.00000000e+00 2.00000000e+00 0.00000000e+00 
3.00000000e+00 2.33333325e+00 0.00000000e+00 
4.00000000e+00 2.33333325e+00 0.00000000e+00 
5.00000000e+00 2.33333325e+00 0.00000000e+00 
6.00000000e+00 2.33333325e+00 0.00000000e+00 
3.00000000e+00 2.66666675e+00 0.00000000e+00 
4.00000000e+00 2.66666675e+00 0.00000000e+00 
5.00000000e+00 2.66666675e+00 0.00000000e+00 
6.00000000e+00 2.66666675e+00 0.00000000e+00 
3.00000000e+00 3.00000000e+00 0.00000000e+00 
4.00000000e+00 3.00000000e+00 0.00000000e+00 
5.00000000e+00 3.00000000e+00 0.00000000e+00 
6.00000000e+00 3.00000000e+00 0.00000000e+00 

        </DataArray>
      </Points>
      <Cells>
        <DataArray type="Int32" Name="connectivity" format="ascii">
0 1 5 4
4 5 9 8
8 9 13 12
1 2 6 5
5 6 10 9
9 10 14 13
2 3 7 6
6 7 11 10
10 11 15 14

        </DataArray>
        <DataArray type="Int32" Name="offsets" format="ascii">
4 8 12 16 20 24 28 32 36 
        </DataArray>
        <DataArray type="UInt8" Name="types" format="ascii">
9 9 9 9 9 9 9 9 9 
        </DataArray>
      </Cells>
      <PointData>
        <DataArray type="Float64" Name="u">
          0.00000000e+00 -5.07669532e+00 -4.17953509e+00 -2.67899864e-01 0.00000000e+00 -6.08310989e-01 6.20125674e+00 2.14889023e+01 0.00000000e+00 1.32304342e+01 2.73510435e+01 5.27126146e+01 0.00000000e+00 5.52453093e+01 7.15945787e+01 9.85976318e+01 
        </DataArray>
        <DataArray type="Float64" Name="v">
          0.00000000e+00 1.28352768e+01 9.64089025e+00 3.14742891e+00 0.00000000e+00 1.38886733e+01 6.39284956e+00 -2.58836642e+00 0.00000000e+00 1.05512121e+01 2.85544362e+00 -7.10059342e+00 0.00000000e+00 -1.07860977e+00 -6.82965313e+00 -1.26773754e+01 
        </DataArray>
        <DataArray type="Float64" Name="p">
          -4.48436634e+03 -4.52842846e+03 -4.57249057e+03 -4.61655268e+03 -4.61495171e+03 -4.57745667e+03 -4.53996162e+03 -4.50246658e+03 -4.74553708e+03 -4.62648488e+03 -4.50743268e+03 -4.38838048e+03 -4.87612244e+03 -4.67551309e+03 -4.47490373e+03 -4.27429438e+03 
        </DataArray>
      </PointData>
    </Piece>
    <Piece NumberOfPoints="16" NumberOfCells="9">
      <Points>
        <DataArray type="Float64" NumberOfComponents="3" format="ascii">
          3.00000000e+00 3.00000000e+00 0.00000000e+00 
4.00000000e+00 3.00000000e+00 0.00000000e+00 
5.00000000e+00 3.00000000e+00 0.00000000e+00 
6.00000000e+00 3.00000000e+00 0.00000000e+00 
3.00000000e+00 3.33333325e+00 0.00000000e+00 
4.00000000e+00 3.33333325e+00 0.00000000e+00 
5.00000000e+00 3.33333325e+00 0.00000000e+00 
6.00000000e+00 3.33333325e+00 0.00000000e+00 
3.00000000e+00 3.66666675e+00 0.00000000e+00 
4.00000000e+00 3.66666675e+00 0.00000000e+00 
5.00000000e+00 3.66666675e+00 0.00000000e+00 
6.00000000e+00 3.66666675e+00 0.00000000e+00 
3.00000000e+00 4.00000000e+00 0.00000000e+00 
4.00000000e+00 4.00000000e+00 0.00000000e+00 
5.00000000e+00 4.00000000e+00 0.00000000e+00 
6.00000000e+00 4.00000000e+00 0.00000000e+00 

        </DataArray>
      </Points>
      <Cells>
        <DataArray type="Int32" Name="connectivity" format="ascii">
0 1 5 4
4 5 9 8
8 9 13 12
1 2 6 5
5 6 10 9
9 10 14 13
2 3 7 6
6 7 11 10
10 11 15 14

        </DataArray>
        <DataArray type="Int32" Name="offsets" format="ascii">
4 8 12 16 20 24 28 32 36 
        </DataArray>
        <DataArray type="UInt8" Name="types" format="ascii">
9 9 9 9 9 9 9 9 9 
        </DataArray>
      </Cells>
      <PointData>
        <DataArray type="Float64" Name="u">
          0.00000000e+00 5.52453093e+01 7.15945787e+01 9.85976318e+01 1.04842594e+02 1.14715273e+02 1.29812633e+02 1.45310805e+02 1.66597990e+02 1.69669345e+02 1.77732288e+02 1.84882070e+02 2.07313567e+02 2.04906074e+02 2.09154093e+02 2.08375732e+02 
        </DataArray>
        <DataArray type="Float64" Name="v">
          0.00000000e+00 -1.07860977e+00 -6.82965313e+00 -1.26773754e+01 -4.39363175e+00 -1.25569450e+01 -1.58214574e+01 -1.70218880e+01 -4.38379111e+00 -1.19102280e+01 -1.63598413e+01 -1.85684671e+01 -7.13134316e+00 -1.39786031e+01 -1.87355576e+01 -2.31005623e+01 
        </DataArray>
        <DataArray type="Float64" Name="p">
          -5.02098503e+03 -4.75952148e+03 -4.49805794e+03 -4.23659440e+03 -4.57464918e+03 -4.45815305e+03 -4.34165693e+03 -4.22516080e+03 -4.12831333e+03 -4.15678462e+03 -4.18525591e+03 -4.21372720e+03 -3.68197749e+03 -3.85541619e+03 -4.02885490e+03 -4.20229360e+03 
        </DataArray>
      </PointData>
    </Piece>
    <Piece NumberOfPoints="16" NumberOfCells="9">
      <Points>
        <DataArray type="Float64" NumberOfComponents="3" format="ascii">
          3.00000000e+00 4.00000000e+00 0.00000000e+00 
4.00000000e+00 4.00000000e+00 0.00000000e+00 
5.00000000e+00 4.00000000e+00 0.00000000e+00 
6.00000000e+00 4.00000000e+00 0.00000000e+00 
3.00000000e+00 4.33333349e+00 0.00000000e+00 
4.00000000e+00 4.33333349e+00 0.00000000e+00 
5.00000000e+00 4.33333349e+00 0.00000000e+00 
6.00000000e+00 4.33333349e+00 0.00000000e+00 
3.00000000e+00 4.66666651e+00 0.00000000e+00 
4.00000000e+00 4.66666651e+00 0.00000000e+00 
5.00000000e+00 4.66666651e+00 0.00000000e+00 
6.00000000e+00 4.66666651e+00 0.00000000e+00 
3.00000000e+00 5.00000000e+00 0.00000000e+00 
4.00000000e+00 5.00000000e+00 0.00000000e+00 
5.00000000e+00 5.00000000e+00 0.00000000e+00 
6.00000000e+00 5.00000000e+00 0.00000000e+00 

        </DataArray>
      </Points>
      <Cells>
        <DataArray type="Int32" Name="connectivity" format="ascii">
0 1 5 4
4 5 9 8
8 9 13 12
1 2 6 5
5 6 10 9
9 10 14 13
2 3 7 6
6 7 11 10
10 11 15 14

        </DataArray>
        <DataArray type="Int32" Name="offsets" format="ascii">
4 8 12 16 20 24 28 32 36 
        </DataArray>
        <DataArray type="UInt8" Name="types" format="ascii">
9 9 9 9 9 9 9 9 9 
        </DataArray>
      </Cells>
      <PointData>
        <DataArray type="Float64" Name="u">
          2.07313567e+02 2.04906074e+02 2.09154093e+02 2.08375732e+02 2.24254794e+02 2.19904646e+02 2.18402061e+02 2.12114660e+02 2.19193678e+02 2.11819726e+02 2.06390956e+02 1.94666369e+02 1.92168806e+02 1.83396146e+02 1.75111345e+02 1.60226052e+02 
        </DataArray>
        <DataArray type="Float64" Name="v">
          -7.13134316e+00 -1.39786031e+01 -1.87355576e+01 -2.31005623e+01 -7.30613830e+00 -1.20587982e+01 -1.73744090e+01 -2.24995801e+01 -7.35892460e+00 -1.19513615e+01 -1.61268150e+01 -2.07559055e+01 -6.31111590e+00 -7.82853723e+00 -1.17405770e+01 -1.63949548e+01 
        </DataArray>
        <DataArray type="Float64" Name="p">
          -3.57973844e+03 -3.76271167e+03 -3.94568490e+03 -4.12865814e+03 -3.24049923e+03 -3.40275180e+03 -3.56500437e+03 -3.72725694e+03 -2.90126002e+03 -3.04279193e+03 -3.18432384e+03 -3.32585574e+03 -2.56202082e+03 -2.68283206e+03 -2.80364330e+03 -2.92445455e+03 
        </DataArray>
      </PointData>
    </Piece>
    <Piece NumberOfPoints="16" NumberOfCells="9">
      <Points>
        <DataArray type="Float64" NumberOfComponents="3" format="ascii">
          3.00000000e+00 5.00000000e+00 0.00000000e+00 
4.00000000e+00 5.00000000e+00 0.00000000e+00 
5.00000000e+00 5.00000000e+00 0.00000000e+00 
6.00000000e+00 5.00000000e+00 0.00000000e+00 
3.00000000e+00 5.33333349e+00 0.00000000e+00 
4.00000000e+00 5.33333349e+00 0.00000000e+00 
5.00000000e+00 5.33333349e+00 0.00000000e+00 
6.00000000e+00 5.33333349e+00 0.00000000e+00 
3.00000000e+00 5.66666651e+00 0.00000000e+00 
4.00000000e+00 5.66666651e+00 0.00000000e+00 
5.00000000e+00 5.66666651e+00 0.00000000e+00 
6.00000000e+00 5.66666651e+00 0.00000000e+00 
3.00000000e+00 6.00000000e+00 0.00000000e+00 
4.00000000e+00 6.00000000e+00 0.00000000e+00 
5.00000000e+00 6.00000000e+00 0.00000000e+00 
6.00000000e+00 6.00000000e+00 0.00000000e+00 

        </DataArray>
      </Points>
      <Cells>
        <DataArray type="Int32" Name="connectivity" format="ascii">
0 1 5 4
4 5 9 8
8 9 13 12
1 2 6 5
5 6 10 9
9 10 14 13
2 3 7 6
6 7 11 10
10 11 15 14

        </DataArray>
        <DataArray type="Int32" Name="offsets" format="ascii">
4 8 12 16 20 24 28 32 36 
        </DataArray>
        <DataArray type="UInt8" Name="types" format="ascii">
9 9 9 9 9 9 9 9 9 
        </DataArray>
      </Cells>
      <PointData>
        <DataArray type="Float64" Name="u">
          1.92168806e+02 1.83396146e+02 1.75111345e+02 1.60226052e+02 1.44319330e+02 1.34522610e+02 1.25749966e+02 1.11714594e+02 7.44700315e+01 7.42258092e+01 6.94698152e+01 6.34275521e+01 0.00000000e+00 2.91982787e+01 2.75465056e+01 3.33786743e+01 
        </DataArray>
        <DataArray type="Float64" Name="v">
          -6.31111590e+00 -7.82853723e+00 -1.17405770e+01 -1.63949548e+01 -3.96831389e+00 -3.25256529e+00 -5.60682527e+00 -1.02846529e+01 -2.72466469e+00 -3.17940780e+00 -6.42747786e+00 -8.74203857e+00 0.00000000e+00 -6.62677145e+00 -4.99961956e+00 -3.36566480e+00 
        </DataArray>
        <DataArray type="Float64" Name="p">
          -2.60191453e+03 -2.66119558e+03 -2.72047663e+03 -2.77975767e+03 -2.67536291e+03 -2.65357526e+03 -2.63178760e+03 -2.60999995e+03 -2.74881129e+03 -2.64595494e+03 -2.54309858e+03 -2.44024223e+03 -2.82225967e+03 -2.63833461e+03 -2.45440956e+03 -2.27048450e+03 
        </DataArray>
      </PointData>
    </Piece>
    <Piece NumberOfPoints="16" NumberOfCells="9">
      <Points>
        <DataArray type="Float64" NumberOfComponents="3" format="ascii">
          3.00000000e+00 6.00000000e+00 0.00000000e+00 
4.00000000e+00 6.00000000e+00 0.00000000e+00 
5.00000000e+00 6.00000000e+00 0.00000000e+00 
6.00000000e+00 6.00000000e+00 0.00000000e+00 
3.00000000e+00 6.33333349e+00 0.00000000e+00 
4.00000000e+00 6.33333349e+00 0.00000000e+00 
5.00000000e+00 6.33333349e+00 0.00000000e+00 
6.00000000e+00 6.33333349e+00 0.00000000e+00 
3.00000000e+00 6.66666651e+00 0.00000000e+00 
4.00000000e+00 6.66666651e+00 0.00000000e+00 
5.00000000e+00 6.66666651e+00 0.00000000e+00 
6.00000000e+00 6.66666651e+00 0.00000000e+00 
3.00000000e+00 7.00000000e+00 0.00000000e+00 
4.00000000e+00 7.00000000e+00 0.00000000e+00 
5.00000000e+00 7.00000000e+00 0.00000000e+00 
6.00000000e+00 7.00000000e+00 0.00000000e+00 

        </DataArray>
      </Points>
      <Cells>
        <DataArray type="Int32" Name="connectivity" format="ascii">
0 1 5 4
4 5 9 8
8 9 13 12
1 2 6 5
5 6 10 9
9 10 14 13
2 3 7 6
6 7 11 10
10 11 15 14

        </DataArray>
        <DataArray type="Int32" Name="offsets" format="ascii">
4 8 12 16 20 24 28 32 36 
        </DataArray>
        <DataArray type="UInt8" Name="types" format="ascii">
9 9 9 9 9 9 9 9 9 
        </DataArray>
      </Cells>
      <PointData>
        <DataArray type="Float64" Name="u">
          0.00000000e+00 2.91982787e+01 2.75465056e+01 3.33786743e+01 0.00000000e+00 4.65122138e+00 6.53194055e+00 1.11497721e+01 0.00000000e+00 -3.10723814e+00 -3.09556229e+00 -2.36594288e+00 0.00000000e+00 -5.48292375e+00 -7.57820933e+00 -1.02423919e+01 
        </DataArray>
        <DataArray type="Float64" Name="v">
          0.00000000e+00 -6.62677145e+00 -4.99961956e+00 -3.36566480e+00 0.00000000e+00 -1.13764959e+01 -7.11077595e+00 -2.98240593e+00 0.00000000e+00 -1.18413204e+01 -6.89406604e+00 -3.36502675e+00 0.00000000e+00 -1.00302124e+01 -6.91833951e+00 -3.89510539e+00 
        </DataArray>
        <DataArray type="Float64" Name="p">
          -2.80683865e+03 -2.68010398e+03 -2.55336932e+03 -2.42663466e+03 -2.71978137e+03 -2.63334753e+03 -2.54691368e+03 -2.46047983e+03 -2.63272410e+03 -2.58659107e+03 -2.54045804e+03 -2.49432501e+03 -2.54566682e+03 -2.53983461e+03 -2.53400240e+03 -2.52817019e+03 
        </DataArray>
      </PointData>
    </Piece>
    <Piece NumberOfPoints="16" NumberOfCells="9">
      <Points>
        <DataArray type="Float64" NumberOfComponents="3" format="ascii">
          3.00000000e+00 7.00000000e+00 0.00000000e+00 
4.00000000e+00 7.00000000e+00 0.00000000e+00 
5.00000000e+00 7.00000000e+00 0.00000000e+00 
6.00000000e+00 7.00000000e+00 0.00000000e+00 
3.00000000e+00 7.33333349e+00 0.00000000e+00 
4.00000000e+00 7.33333349e+00 0.00000000e+00 
5.00000000e+00 7.33333349e+00 0.00000000e+00 
6.00000000e+00 7.33333349e+00 0.00000000e+00 
3.00000000e+00 7.66666651e+00 0.00000000e+00 
4.00000000e+00 7.66666651e+00 0.00000000e+00 
5.00000000e+00 7.66666651e+00 0.00000000e+00 
6.00000000e+00 7.66666651e+00 0.00000000e+00 
3.00000000e+00 8.00000000e+00 0.00000000e+00 
4.00000000e+00 8.00000000e+00 0.00000000e+00 
5.00000000e+00 8.00000000e+00 0.00000000e+00 
6.00000000e+00 8.00000000e+00 0.00000000e+00 

        </DataArray>
      </Points>
      <Cells>
        <DataArray type="Int32" Name="connectivity" format="ascii">
0 1 5 4
4 5 9 8
8 9 13 12
1 2 6 5
5 6 10 9
9 10 14 13
2 3 7 6
6 7 11 10
10 11 15 14

        </DataArray>
        <DataArray type="Int32" Name="offsets" format="ascii">
4 8 12 16 20 24 28 32 36 
        </DataArray>
        <DataArray type="UInt8" Name="types" format="ascii">
9 9 9 9 9 9 9 9 9 
        </DataArray>
      </Cells>
      <PointData>
        <DataArray type="Float64" Name="u">
          0.00000000e+00 -5.48292375e+00 -7.57820933e+00 -1.02423919e+01 0.00000000e+00 -6.01188883e+00 -9.52314276e+00 -1.35908479e+01 0.00000000e+00 -5.61970743e+00 -9.57176905e+00 -1.41712710e+01 0.00000000e+00 -4.70232371e+00 -8.30294793e+00 -1.26954247e+01 
        </DataArray>
        <DataArray type="Float64" Name="v">
          0.00000000e+00 -1.00302124e+01 -6.91833951e+00 -3.89510539e+00 0.00000000e+00 -7.58810582e+00 -5.60550226e+00 -3.44564438e+00 0.00000000e+00 -5.56308236e+00 -4.29304321e+00 -2.74246489e+00 0.00000000e+00 -3.21470608e+00 -2.64503312e+00 -1.75348595e+00 
        </DataArray>
        <DataArray type="Float64" Name="p">
          -2.55196944e+03 -2.53375261e+03 -2.51553578e+03 -2.49731896e+03 -2.52851978e+03 -2.51364633e+03 -2.49877287e+03 -2.48389941e+03 -2.50507013e+03 -2.49354004e+03 -2.48200996e+03 -2.47047987e+03 -2.48162047e+03 -2.47343376e+03 -2.46524704e+03 -2.45706033e+03 
        </DataArray>
      </PointData>
    </Piece>
    <Piece NumberOfPoints="16" NumberOfCells="9">
      <Points>
        <DataArray type="Float64" NumberOfComponents="3" format="ascii">
          3.00000000e+00 8.00000000e+00 0.00000000e+00 
4.00000000e+00 8.00000000e+00 0.00000000e+00 
5.00000000e+00 8.00000000e+00 0.00000000e+00 
6.00000000e+00 8.00000000e+00 0.00000000e+00 
3.00000000e+00 8.33333302e+00 0.00000000e+00 
4.00000000e+00 8.33333302e+00 0.00000000e+00 
5.00000000e+00 8.33333302e+00 0.00000000e+00 
6.00000000e+00 8.33333302e+00 0.00000000e+00 
3.00000000e+00 8.66666698e+00 0.00000000e+00 
4.00000000e+00 8.66666698e+00 0.00000000e+00 
5.00000000e+00 8.66666698e+00 0.00000000e+00 
6.00000000e+00 8.66666698e+00 0.00000000e+00 
3.00000000e+00 9.00000000e+00 0.00000000e+00 
4.00000000e+00 9.00000000e+00 0.00000000e+00 
5.00000000e+00 9.00000000e+00 0.00000000e+00 
6.00000000e+00 9.00000000e+00 0.00000000e+00 

        </DataArray>
      </Points>
      <Cells>
        <DataArray type="Int32" Name="connectivity" format="ascii">
0 1 5 4
4 5 9 8
8 9 13 12
1 2 6 5
5 6 10 9
9 10 14 13
2 3 7 6
6 7 11 10
10 11 15 14

        </DataArray>
        <DataArray type="Int32" Name="offsets" format="ascii">
4 8 12 16 20 24 28 32 36 
        </DataArray>
        <DataArray type="UInt8" Name="types" format="ascii">
9 9 9 9 9 9 9 9 9 
        </DataArray>
      </Cells>
      <PointData>
        <DataArray type="Float64" Name="u">
          0.00000000e+00 -4.70232371e+00 -8.30294793e+00 -1.26954247e+01 0.00000000e+00 -3.43725166e+00 -6.10134965e+00 -9.70234702e+00 0.00000000e+00 -1.86625096e+00 -3.24545625e+00 -5.39854831e+00 0.00000000e+00 0.00000000e+00 0.00000000e+00 0.00000000e+00 
        </DataArray>
        <DataArray type="Float64" Name="v">
          0.00000000e+00 -3.21470608e+00 -2.64503312e+00 -1.75348595e+00 0.00000000e+00 -1.43078194e+00 -1.24838966e+00 -8.04357450e-01 0.00000000e+00 -4.53609124e-01 -4.27653457e-01 -2.66236554e-01 0.00000000e+00 0.00000000e+00 0.00000000e+00 0.00000000e+00 
        </DataArray>
        <DataArray type="Float64" Name="p">
          -2.48646306e+03 -2.47664888e+03 -2.46683469e+03 -2.45702051e+03 -2.49113079e+03 -2.48097485e+03 -2.47081891e+03 -2.46066296e+03 -2.49579852e+03 -2.48530082e+03 -2.47480312e+03 -2.46430542e+03 -2.50046624e+03 -2.48962679e+03 -2.47878733e+03 -2.46794787e+03 
        </DataArray>
      </PointData>
    </Piece>
    <Piece NumberOfPoints="16" NumberOfCells="9">
      <Points>
        <DataArray type="Float64" NumberOfComponents="3" format="ascii">
          6.00000000e+00 0.00000000e+00 0.00000000e+00 
7.00000000e+00 0.00000000e+00 0.00000000e+00 
8.00000000e+00 0.00000000e+00 0.00000000e+00 
9.00000000e+00 0.00000000e+00 0.00000000e+00 
6.00000000e+00 3.33333343e-01 0.00000000e+00 
7.00000000e+00 3.33333343e-01 0.00000000e+00 
8.00000000e+00 3.33333343e-01 0.00000000e+00 
9.00000000e+00 3.33333343e-01 0.00000000e+00 
6.00000000e+00 6.66666687e-01 0.00000000e+00 
7.00000000e+00 6.66666687e-01 0.00000000e+00 
8.00000000e+00 6.66666687e-01 0.00000000e+00 
9.00000000e+00 6.66666687e-01 0.00000000e+00 
6.00000000e+00 1.00000000e+00 0.00000000e+00 
7.00000000e+00 1.00000000e+00 0.00000000e+00 
8.00000000e+00 1.00000000e+00 0.00000000e+00 
9.00000000e+00 1.00000000e+00 0.00000000e+00 

        </DataArray>
      </Points>
      <Cells>
        <DataArray type="Int32" Name="connectivity" format="ascii">
0 1 5 4
4 5 9 8
8 9 13 12
1 2 6 5
5 6 10 9
9 10 14 13
2 3 7 6
6 7 11 10
10 11 15 14

        </DataArray>
        <DataArray type="Int32" Name="offsets" format="ascii">
4 8 12 16 20 24 28 32 36 
        </DataArray>
        <DataArray type="UInt8" Name="types" format="ascii">
9 9 9 9 9 9 9 9 9 
        </DataArray>
      </Cells>
      <PointData>
        <DataArray type="Float64" Name="u">