<?xml version="1.0"?>
<VTKFile type="UnstructuredGrid" version="0.1" byte_order="LittleEndian">
  <UnstructuredGrid>
    <Piece NumberOfPoints="16" NumberOfCells="9">
      <Points>
        <DataArray type="Float64" NumberOfComponents="3" format="ascii">
          0.00000000e+00 3.00000000e+00 0.00000000e+00 
1.00000000e+00 3.00000000e+00 0.00000000e+00 
2.00000000e+00 3.00000000e+00 0.00000000e+00 
3.00000000e+00 3.00000000e+00 0.00000000e+00 
0.00000000e+00 3.33333325e+00 0.00000000e+00 
1.00000000e+00 3.33333325e+00 0.00000000e+00 
2.00000000e+00 3.33333325e+00 0.00000000e+00 
3.00000000e+00 3.33333325e+00 0.00000000e+00 
0.00000000e+00 3.66666675e+00 0.00000000e+00 
1.00000000e+00 3.66666675e+00 0.00000000e+00 
2.00000000e+00 3.66666675e+00 0.00000000e+00 
3.00000000e+00 3.66666675e+00 0.00000000e+00 
0.00000000e+00 4.00000000e+00 0.00000000e+00 
1.00000000e+00 4.00000000e+00 0.00000000e+00 
2.00000000e+00 4.00000000e+00 0.00000000e+00 
3.00000000e+00 4.00000000e+00 0.00000000e+00 

        </DataArray>
      </Points>
      <Cells>
        <DataArray type="Int32" Name="connectivity" format="ascii">
0 1 5 4
4 5 9 8
8 9 13 12
1 2 6 5
5 6 10 9
9 10 14 13
2 3 7 6
6 7 11 10
10 11 15 14

        </DataArray>
        <DataArray type="Int32" Name="offsets" format="ascii">
4 8 12 16 20 24 28 32 36 
        </DataArray>
        <DataArray type="UInt8" Name="types" format="ascii">
9 9 9 9 9 9 9 9 9 
        </DataArray>
      </Cells>
      <PointData>
        <DataArray type="Float64" Name="u">
          0.00000000e+00 0.00000000e+00 0.00000000e+00 0.00000000e+00 8.88888889e+01 9.47698647e+01 9.22439380e+01 1.05569994e+02 1.55555556e+02 1.59956980e+02 1.58910321e+02 1.66759130e+02 2.00000000e+02 2.02487735e+02 2.02228255e+02 2.07450143e+02 
        </DataArray>
        <DataArray type="Float64" Name="v">
          0.00000000e+00 0.00000000e+00 0.00000000e+00 0.00000000e+00 0.00000000e+00 -1.66968665e+00 -2.42250702e+00 -4.40860316e+00 0.00000000e+00 -1.10411963e+00 -2.63834014e+00 -4.40932738e+00 0.00000000e+00 -2.86859133e+00 -4.85664767e+00 -7.19234386e+00 
        </DataArray>
        <DataArray type="Float64" Name="p">
          -2.14187351e+03 -2.78615962e+03 -3.43044574e+03 -4.07473185e+03 -2.09743076e+03 -2.73278949e+03 -3.36814822e+03 -4.00350695e+03 -2.05298801e+03 -2.67941936e+03 -3.30585070e+03 -3.93228205e+03 -2.00854526e+03 -2.62604922e+03 -3.24355318e+03 -3.86105715e+03 
        </DataArray>
      </PointData>
    </Piece>
    <Piece NumberOfPoints="16" NumberOfCells="9">
      <Points>
        <DataArray type="Float64" NumberOfComponents="3" format="ascii">
          0.00000000e+00 4.00000000e+00 0.00000000e+00 
1.00000000e+00 4.00000000e+00 0.00000000e+00 
2.00000000e+00 4.00000000e+00 0.00000000e+00 
3.00000000e+00 4.00000000e+00 0.00000000e+00 
0.00000000e+00 4.33333349e+00 0.00000000e+00 
1.00000000e+00 4.33333349e+00 0.00000000e+00 
2.00000000e+00 4.33333349e+00 0.00000000e+00 
3.00000000e+00 4.33333349e+00 0.00000000e+00 
0.00000000e+00 4.66666651e+00 0.00000000e+00 
1.00000000e+00 4.66666651e+00 0.00000000e+00 
2.00000000e+00 4.66666651e+00 0.00000000e+00 
3.00000000e+00 4.66666651e+00 0.00000000e+00 
0.00000000e+00 5.00000000e+00 0.00000000e+00 
1.00000000e+00 5.00000000e+00 0.00000000e+00 
2.00000000e+00 5.00000000e+00 0.00000000e+00 
3.00000000e+00 5.00000000e+00 0.00000000e+00 

        </DataArray>
      </Points>
      <Cells>
        <DataArray type="Int32" Name="connectivity" format="ascii">
0 1 5 4
4 5 9 8
8 9 13 12
1 2 6 5
5 6 10 9
9 10 14 13
2 3 7 6
6 7 11 10
10 11 15 14

        </DataArray>
        <DataArray type="Int32" Name="offsets" format="ascii">
4 8 12 16 20 24 28 32 36 
        </DataArray>
        <DataArray type="UInt8" Name="types" format="ascii">
9 9 9 9 9 9 9 9 9 
        </DataArray>
      </Cells>
      <PointData>
        <DataArray type="Float64" Name="u">
          2.00000000e+02 2.02487735e+02 2.02228255e+02 2.07450143e+02 2.22222222e+02 2.23090969e+02 2.22919088e+02 2.24238700e+02 2.22222222e+02 2.21291033e+02 2.20964712e+02 2.19168492e+02 2.00000000e+02 1.97556341e+02 1.97343208e+02 1.92084200e+02 
        </DataArray>
        <DataArray type="Float64" Name="v">
          0.00000000e+00 -2.86859133e+00 -4.85664767e+00 -7.19234386e+00 0.00000000e+00 -3.27593118e+00 -5.71177664e+00 -7.40249915e+00 0.00000000e+00 -3.28557652e+00 -5.65210182e+00 -7.42931884e+00 0.00000000e+00 -2.73240990e+00 -4.85957180e+00 -6.39964443e+00 
        </DataArray>
        <DataArray type="Float64" Name="p">
          -1.98289293e+03 -2.59761100e+03 -3.21232907e+03 -3.82704714e+03 -1.72108913e+03 -2.38727635e+03 -3.05346357e+03 -3.71965078e+03 -1.45928533e+03 -2.17694169e+03 -2.89459806e+03 -3.61225443e+03 -1.19748152e+03 -1.96660704e+03 -2.73573255e+03 -3.50485807e+03 
        </DataArray>
      </PointData>
    </Piece>
    <Piece NumberOfPoints="16" NumberOfCells="9">
      <Points>
        <DataArray type="Float64" NumberOfComponents="3" format="ascii">
          0.00000000e+00 5.00000000e+00 0.00000000e+00 
1.00000000e+00 5.00000000e+00 0.00000000e+00 
2.00000000e+00 5.00000000e+00 0.00000000e+00 
3.00000000e+00 5.00000000e+00 0.00000000e+00 
0.00000000e+00 5.33333349e+00 0.00000000e+00 
1.00000000e+00 5.33333349e+00 0.00000000e+00 
2.00000000e+00 5.33333349e+00 0.00000000e+00 
3.00000000e+00 5.33333349e+00 0.00000000e+00 
0.00000000e+00 5.66666651e+00 0.00000000e+00 
1.00000000e+00 5.66666651e+00 0.00000000e+00 
2.00000000e+00 5.66666651e+00 0.00000000e+00 
3.00000000e+00 5.66666651e+00 0.00000000e+00 
0.00000000e+00 6.00000000e+00 0.00000000e+00 
1.00000000e+00 6.00000000e+00 0.00000000e+00 
2.00000000e+00 6.00000000e+00 0.00000000e+00 
3.00000000e+00 6.00000000e+00 0.00000000e+00 

        </DataArray>
      </Points>
      <Cells>
        <DataArray type="Int32" Name="connectivity" format="ascii">
0 1 5 4
4 5 9 8
8 9 13 12
1 2 6 5
5 6 10 9
9 10 14 13
2 3 7 6
6 7 11 10
10 11 15 14

        </DataArray>
        <DataArray type="Int32" Name="offsets" format="ascii">
4 8 12 16 20 24 28 32 36 
        </DataArray>
        <DataArray type="UInt8" Name="types" format="ascii">
9 9 9 9 9 9 9 9 9 
        </DataArray>
      </Cells>
      <PointData>
        <DataArray type="Float64" Name="u">
          2.00000000e+02 1.97556341e+02 1.97343208e+02 1.92084200e+02 1.55555556e+02 1.51671894e+02 1.51880661e+02 1.44155718e+02 8.88888889e+01 8.41115851e+01 8.51119282e+01 7.37517370e+01 0.00000000e+00 0.00000000e+00 0.00000000e+00 0.00000000e+00 
        </DataArray>
        <DataArray type="Float64" Name="v">
          0.00000000e+00 -2.73240990e+00 -4.85957180e+00 -6.39964443e+00 0.00000000e+00 -1.09193554e+00 -2.49883418e+00 -4.00887325e+00 0.00000000e+00 -1.46069842e+00 -2.51803894e+00 -2.86808205e+00 0.00000000e+00 0.00000000e+00 0.00000000e+00 0.00000000e+00 
        </DataArray>
        <DataArray type="Float64" Name="p">
          -1.17836857e+03 -1.93699817e+03 -2.69562778e+03 -3.45425738e+03 -1.12657657e+03 -1.88501061e+03 -2.64344466e+03 -3.40187870e+03 -1.07478458e+03 -1.83302306e+03 -2.59126153e+03 -3.34950001e+03 -1.02299258e+03 -1.78103550e+03 -2.53907841e+03 -3.29712133e+03 
        </DataArray>
      </PointData>
    </Piece>
    <Piece NumberOfPoints="16" NumberOfCells="9">
      <Points>
        <DataArray type="Float64" NumberOfComponents="3" format="ascii">
          3.00000000e+00 0.00000000e+00 0.00000000e+00 
4.00000000e+00 0.00000000e+00 0.00000000e+00 
5.00000000e+00 0.00000000e+00 0.00000000e+00 
6.00000000e+00 0.00000000e+00 0.00000000e+00 
3.00000000e+00 3.33333343e-01 0.00000000e+00 
4.00000000e+00 3.33333343e-01 0.00000000e+00 
5.00000000e+00 3.33333343e-01 0.00000000e+00 
6.00000000e+00 3.33333343e-01 0.00000000e+00 
3.00000000e+00 6.66666687e-01 0.00000000e+00 
4.00000000e+00 6.66666687e-01 0.00000000e+00 
5.00000000e+00 6.66666687e-01 0.00000000e+00 
6.00000000e+00 6.66666687e-01 0.00000000e+00 
3.00000000e+00 1.00000000e+00 0.00000000e+00 
4.00000000e+00 1.00000000e+00 0.00000000e+00 
5.00000000e+00 1.00000000e+00 0.00000000e+00 
6.00000000e+00 1.00000000e+00 0.00000000e+00 

        </DataArray>
      </Points>
      <Cells>
        <DataArray type="Int32" Name="connectivity" format="ascii">
0 1 5 4
4 5 9 8
8 9 13 12
1 2 6 5
5 6 10 9
9 10 14 13
2 3 7 6
6 7 11 10
10 11 15 14

        </DataArray>
        <DataArray type="Int32" Name="offsets" format="ascii">
4 8 12 16 20 24 28 32 36 
        </DataArray>
        <DataArray type="UInt8" Name="types" format="ascii">
9 9 9 9 9 9 9 9 9 
        </DataArray>
      </Cells>
      <PointData>
        <DataArray type="Float64" Name="u">
          0.00000000e+00 0.00000000e+00 0.00000000e+00 0.00000000e+00 0.00000000e+00 -2.44949405e+00 -4.78597828e+00 -7.57214980e+00 0.00000000e+00 -4.56544061e+00 -8.88936192e+00 -1.49628486e+01 0.00000000e+00 -6.09815098e+00 -1.16821264e+01 -1.91377866e+01 
        </DataArray>
        <DataArray type="Float64" Name="v">
          0.00000000e+00 0.00000000e+00 0.00000000e+00 0.00000000e+00 0.00000000e+00 6.64102791e-01 5.39175911e-01 3.96358627e-01 0.00000000e+00 2.00528649e+00 1.78064127e+00 1.40022274e+00 0.00000000e+00 4.44301255e+00 4.27205242e+00 2.76906570e+00 
        </DataArray>
        <DataArray type="Float64" Name="p">
          -4.74718701e+03 -4.73929285e+03 -4.73139869e+03 -4.72350453e+03 -4.74382879e+03 -4.73438761e+03 -4.72494644e+03 -4.71550526e+03 -4.74047056e+03 -4.72948237e+03 -4.71849418e+03 -4.70750599e+03 -4.73711234e+03 -4.72457713e+03 -4.71204193e+03 -4.69950672e+03 
        </DataArray>
      </PointData>
    </Piece>
    <Piece NumberOfPoints="16" NumberOfCells="9">
      <Points>
        <DataArray type="Float64" NumberOfComponents="3" format="ascii">
          3.00000000e+00 1.00000000e+00 0.00000000e+00 
4.00000000e+00 1.00000000e+00 0.00000000e+00 
5.00000000e+00 1.00000000e+00 0.00000000e+00 
6.00000000e+00 1.00000000e+00 0.00000000e+00 
3.00000000e+00 1.33333337e+00 0.00000000e+00 
4.00000000e+00 1.33333337e+00 0.00000000e+00 
5.00000000e+00 1.33333337e+00 0.00000000e+00 
6.00000000e+00 1.33333337e+00 0.00000000e+00 
3.00000000e+00 1.66666663e+00 0.00000000e+00 
4.00000000e+00 1.66666663e+00 0.00000000e+00 
5.00000000e+00 1.66666663e+00 0.00000000e+00 
6.00000000e+00 1.66666663e+00 0.00000000e+00 
3.00000000e+00 2.00000000e+00 0.00000000e+00 
4.00000000e+00 2.00000000e+00 0.00000000e+00 
5.00000000e+00 2.00000000e+00 0.00000000e+00 
6.00000000e+00 2.00000000e+00 0.00000000e+00 

        </DataArray>
      </Points>
      <Cells>
        <DataArray type="Int32" Name="connectivity" format="ascii">
0 1 5 4
4 5 9 8
8 9 13 12
1 2 6 5
5 6 10 9
9 10 14 13
2 3 7 6
6 7 11 10
10 11 15 14

        </DataArray>
        <DataArray type="Int32" Name="offsets" format="ascii">
4 8 12 16 20 24 28 32 36 
        </DataArray>
        <DataArray type="UInt8" Name="types" format="ascii">
9 9 9 9 9 9 9 9 9 
        </DataArray>
      </Cells>
      <PointData>
        <DataArray type="Float64" Name="u">
          0.00000000e+00 -6.09815098e+00 -1.16821264e+01 -1.91377866e+01 0.00000000e+00 -6.86034012e+00 -1.23193089e+01 -1.86758603e+01 0.00000000e+00 -6.69383253e+00 -1.01530128e+01 -1.30106831e+01 0.00000000e+00 -5.18933787e+00 -4.37582671e+00 -1.27495875e+00 
        </DataArray>
        <DataArray type="Float64" Name="v">
          0.00000000e+00 4.44301255e+00 4.27205242e+00 2.76906570e+00 0.00000000e+00 7.47273930e+00 6.77377749e+00 4.42098331e+00 0.00000000e+00 9.86087332e+00 8.41937870e+00 4.67212379e+00 0.00000000e+00 1.22647677e+01 9.09129613e+00 3.33686096e+00 
        </DataArray>
        <DataArray type="Float64" Name="p">
          -4.73138021e+03 -4.72283704e+03 -4.71429387e+03 -4.70575070e+03 -4.75396731e+03 -4.75098139e+03 -4.74799547e+03 -4.74500954e+03 -4.77655442e+03 -4.77912574e+03 -4.78169706e+03 -4.78426839e+03 -4.79914153e+03 -4.80727009e+03 -4.81539866e+03 -4.82352723e+03 
        </DataArray>
      </PointData>
    </Piece>
    <Piece NumberOfPoints="16" NumberOfCells="9">
      <Points>
        <DataArray type="Float64" NumberOfComponents="3" format="ascii">
          3.00000000e+00 2.00000000e+00 0.00000000e+00 
4.00000000e+00 2.00000000e+00 0.00000000e+00 
5.00000000e+00 2.00000000e+00 0.00000000e+00 
6.00000000e+00 2.00000000e+00 0.00000000e+00 
3.00000000e+00 2.33333325e+00 0.00000000e+00 
4.00000000e+00 2.33333325e+00 0.00000000e+00 
5.00000000e+00 2.33333325e+00 0.00000000e+00 
6.00000000e+00 2.33333325e+00 0.00000000e+00 
3.00000000e+00 2.66666675e+00 0.00000000e+00 
4.00000000e+00 2.66666675e+00 0.00000000e+00 
5.00000000e+00 2.66666675e+00 0.00000000e+00 
6.00000000e+00 2.66666675e+00 0.00000000e+00 
3.00000000e+00 3.00000000e+00 0.00000000e+00 
4.00000000e+00 3.00000000e+00 0.00000000e+00 
5.00000000e+00 3.00000000e+00 0.00000000e+00 
6.00000000e+00 3.00000000e+00 0.00000000e+00 

        </DataArray>
      </Points>
      <Cells>
        <DataArray type="Int32" Name="connectivity" format="ascii">
0 1 5 4
4 5 9 8
8 9 13 12
1 2 6 5
5 6 10 9
9 10 14 13
2 3 7 6
6 7 11 10
10 11 15 14

        </DataArray>
        <DataArray type="Int32" Name="offsets" format="ascii">
4 8 12 16 20 24 28 32 36 
        </DataArray>
        <DataArray type="UInt8" Name="types" format="ascii">
9 9 9 9 9 9 9 9 9 
        </DataArray>
      </Cells>
      <PointData>
        <DataArray type="Float64" Name="u">
          0.00000000e+00 -5.18933787e+00 -4.37582671e+00 -1.27495875e+00 0.00000000e+00 -1.10975432e+00 5.57701421e+00 1.97704396e+01 0.00000000e+00 1.21165718e+01 2.62429601e+01 5.08233880e+01 0.00000000e+00 5.43468087e+01 7.11496128e+01 9.76136737e+01 
        </DataArray>
        <DataArray type="Float64" Name="v">
          0.00000000e+00 1.22647677e+01 9.09129613e+00 3.33686096e+00 0.00000000e+00 1.33882477e+01 6.07200700e+00 -2.21182226e+00 0.00000000e+00 1.03125271e+01 2.91838157e+00 -6.68556778e+00 0.00000000e+00 -1.01026200e+00 -6.63622986e+00 -1.23622045e+01 
        </DataArray>
        <DataArray type="Float64" Name="p">
          -4.77694823e+03 -4.81578173e+03 -4.85461522e+03 -4.89344872e+03 -4.89277371e+03 -4.85904990e+03 -4.82532610e+03 -4.79160229e+03 -5.00859918e+03 -4.90231808e+03 -4.79603697e+03 -4.68975586e+03 -5.12442466e+03 -4.94558625e+03 -4.76674784e+03 -4.58790944e+03 
        </DataArray>
      </PointData>
    </Piece>
    <Piece NumberOfPoints="16" NumberOfCells="9">
      <Points>
        <DataArray type="Float64" NumberOfComponents="3" format="ascii">
          3.00000000e+00 3.00000000e+00 0.00000000e+00 
4.00000000e+00 3.00000000e+00 0.00000000e+00 
5.00000000e+00 3.00000000e+00 0.00000000e+00 
6.00000000e+00 3.00000000e+00 0.00000000e+00 
3.00000000e+00 3.33333325e+00 0.00000000e+00 
4.00000000e+00 3.33333325e+00 0.00000000e+00 
5.00000000e+00 3.33333325e+00 0.00000000e+00 
6.00000000e+00 3.33333325e+00 0.00000000e+00 
3.00000000e+00 3.66666675e+00 0.00000000e+00 
4.00000000e+00 3.66666675e+00 0.00000000e+00 
5.00000000e+00 3.66666675e+00 0.00000000e+00 
6.00000000e+00 3.66666675e+00 0.00000000e+00 
3.00000000e+00 4.00000000e+00 0.00000000e+00 
4.00000000e+00 4.00000000e+00 0.00000000e+00 
5.00000000e+00 4.00000000e+00 0.00000000e+00 
6.00000000e+00 4.00000000e+00 0.00000000e+00 

        </DataArray>
      </Points>
      <Cells>
        <DataArray type="Int32" Name="connectivity" format="ascii">
0 1 5 4
4 5 9 8
8 9 13 12
1 2 6 5
5 6 10 9
9 10 14 13
2 3 7 6
6 7 11 10
10 11 15 14

        </DataArray>
        <DataArray type="Int32" Name="offsets" format="ascii">
4 8 12 16 20 24 28 32 36 
        </DataArray>
        <DataArray type="UInt8" Name="types" format="ascii">
9 9 9 9 9 9 9 9 9 
        </DataArray>
      </Cells>
      <PointData>
        <DataArray type="Float64" Name="u">
          0.00000000e+00 5.43468087e+01 7.11496128e+01 9.76136737e+01 1.05569994e+02 1.15006099e+02 1.30202089e+02 1.45482827e+02 1.66759130e+02 1.70088822e+02 1.78169857e+02 1.85438464e+02 2.07450143e+02 2.05348558e+02 2.09684256e+02 2.09423657e+02 
        </DataArray>
        <DataArray type="Float64" Name="v">
          0.00000000e+00 -1.01026200e+00 -6.63622986e+00 -1.23622045e+01 -4.40860316e+00 -1.23871452e+01 -1.56758550e+01 -1.69265557e+01 -4.40932738e+00 -1.15483985e+01 -1.59200918e+01 -1.82107045e+01 -7.19234386e+00 -1.38050647e+01 -1.85260318e+01 -2.29039429e+01 
        </DataArray>
        <DataArray type="Float64" Name="p">
          -5.26432098e+03 -5.02901392e+03 -4.79370687e+03 -4.55839982e+03 -4.84050484e+03 -4.73917133e+03 -4.63783782e+03 -4.53650431e+03 -4.41668870e+03 -4.44932874e+03 -4.48196877e+03 -4.51460881e+03 -3.99287256e+03 -4.15948614e+03 -4.32609972e+03 -4.49271330e+03 
        </DataArray>
      </PointData>
    </Piece>
    <Piece NumberOfPoints="16" NumberOfCells="9">
      <Points>
        <DataArray type="Float64" NumberOfComponents="3" format="ascii">
          3.00000000e+00 4.00000000e+00 0.00000000e+00 
4.00000000e+00 4.00000000e+00 0.00000000e+00 
5.00000000e+00 4.00000000e+00 0.00000000e+00 
6.00000000e+00 4.00000000e+00 0.00000000e+00 
3.00000000e+00 4.33333349e+00 0.00000000e+00 
4.00000000e+00 4.33333349e+00 0.00000000e+00 
5.00000000e+00 4.33333349e+00 0.00000000e+00 
6.00000000e+00 4.33333349e+00 0.00000000e+00 
3.00000000e+00 4.66666651e+00 0.00000000e+00 
4.00000000e+00 4.66666651e+00 0.00000000e+00 
5.00000000e+00 4.66666651e+00 0.00000000e+00 
6.00000000e+00 4.66666651e+00 0.00000000e+00 
3.00000000e+00 5.00000000e+00 0.00000000e+00 
4.00000000e+00 5.00000000e+00 0.00000000e+00 
5.00000000e+00 5.00000000e+00 0.00000000e+00 
6.00000000e+00 5.00000000e+00 0.00000000e+00 

        </DataArray>
      </Points>
      <Cells>
        <DataArray type="Int32" Name="connectivity" format="ascii">
0 1 5 4
4 5 9 8
8 9 13 12
1 2 6 5
5 6 10 9
9 10 14 13
2 3 7 6
6 7 11 10
10 11 15 14

        </DataArray>
        <DataArray type="Int32" Name="offsets" format="ascii">
4 8 12 16 20 24 28 32 36 
        </DataArray>
        <DataArray type="UInt8" Name="types" format="ascii">
9 9 9 9 9 9 9 9 9 
        </DataArray>
      </Cells>
      <PointData>
        <DataArray type="Float64" Name="u">
          2.07450143e+02 2.05348558e+02 2.09684256e+02 2.09423657e+02 2.24238700e+02 2.20398354e+02 2.18976559e+02 2.13194024e+02 2.19168492e+02 2.12192492e+02 2.06864379e+02 1.95563886e+02 1.92084200e+02 1.83675908e+02 1.75423411e+02 1.60771271e+02 
        </DataArray>
        <DataArray type="Float64" Name="v">
          -7.19234386e+00 -1.38050647e+01 -1.85260318e+01 -2.29039429e+01 -7.40249915e+00 -1.20613633e+01 -1.72834086e+01 -2.23353719e+01 -7.42931884e+00 -1.20253907e+01 -1.62081377e+01 -2.07448320e+01 -6.39964443e+00 -8.06314902e+00 -1.19002434e+01 -1.63706668e+01 
        </DataArray>
        <DataArray type="Float64" Name="p">
          -3.90418095e+03 -4.07568934e+03 -4.24719773e+03 -4.41870612e+03 -3.56742716e+03 -3.72038482e+03 -3.87334248e+03 -4.02630014e+03 -3.23067337e+03 -3.36508030e+03 -3.49948723e+03 -3.63389416e+03 -2.89391958e+03 -3.00977578e+03 -3.12563198e+03 -3.24148818e+03 
        </DataArray>
      </PointData>
    </Piece>
    <Piece NumberOfPoints="16" NumberOfCells="9">
      <Points>
        <DataArray type="Float64" NumberOfComponents="3" format="ascii">
          3.00000000e+00 5.00000000e+00 0.00000000e+00 
4.00000000e+00 5.00000000e+00 0.00000000e+00 
5.00000000e+00 5.00000000e+00 0.00000000e+00 
6.00000000e+00 5.00000000e+00 0.00000000e+00 
3.00000000e+00 5.33333349e+00 0.00000000e+00 
4.00000000e+00 5.33333349e+00 0.00000000e+00 
5.00000000e+00 5.33333349e+00 0.00000000e+00 
6.00000000e+00 5.33333349e+00 0.00000000e+00 
3.00000000e+00 5.66666651e+00 0.00000000e+00 
4.00000000e+00 5.66666651e+00 0.00000000e+00 
5.00000000e+00 5.66666651e+00 0.00000000e+00 
6.00000000e+00 5.66666651e+00 0.00000000e+00 
3.00000000e+00 6.00000000e+00 0.00000000e+00 
4.00000000e+00 6.00000000e+00 0.00000000e+00 
5.00000000e+00 6.00000000e+00 0.00000000e+00 
6.00000000e+00 6.00000000e+00 0.00000000e+00 

        </DataArray>
      </Points>
      <Cells>
        <DataArray type="Int32" Name="connectivity" format="ascii">
0 1 5 4
4 5 9 8
8 9 13 12
1 2 6 5
5 6 10 9
9 10 14 13
2 3 7 6
6 7 11 10
10 11 15 14

        </DataArray>
        <DataArray type="Int32" Name="offsets" format="ascii">
4 8 12 16 20 24 28 32 36 
        </DataArray>
        <DataArray type="UInt8" Name="types" format="ascii">
9 9 9 9 9 9 9 9 9 
        </DataArray>
      </Cells>
      <PointData>
        <DataArray type="Float64" Name="u">
          1.92084200e+02 1.83675908e+02 1.75423411e+02 1.60771271e+02 1.44155718e+02 1.34271769e+02 1.25322190e+02 1.11054509e+02 7.37517370e+01 7.30264100e+01 6.79657653e+01 6.14798378e+01 0.00000000e+00 2.78911336e+01 2.61421616e+01 3.16163869e+01 
        </DataArray>
        <DataArray type="Float64" Name="v">
          -6.39964443e+00 -8.06314902e+00 -1.19002434e+01 -1.63706668e+01 -4.00887325e+00 -3.45434839e+00 -5.68160678e+00 -1.01111265e+01 -2.86808205e+00 -3.38598840e+00 -6.52802306e+00 -8.73729650e+00 0.00000000e+00 -6.50596107e+00 -4.87249646e+00 -3.25316050e+00 
        </DataArray>
        <DataArray type="Float64" Name="p">
          -2.92551588e+03 -2.98406465e+03 -3.04261341e+03 -3.10116217e+03 -2.98616824e+03 -2.97137099e+03 -2.95657373e+03 -2.94177648e+03 -3.04682060e+03 -2.95867733e+03 -2.87053406e+03 -2.78239079e+03 -3.10747296e+03 -2.94598367e+03 -2.78449438e+03 -2.62300509e+03 
        </DataArray>
      </PointData>
    </Piece>
    <Piece NumberOfPoints="16" NumberOfCells="9">
      <Points>
        <DataArray type="Float64" NumberOfComponents="3" format="ascii">
          3.00000000e+00 6.00000000e+00 0.00000000e+00 
4.00000000e+00 6.00000000e+00 0.00000000e+00 
5.00000000e+00 6.00000000e+00 0.00000000e+00 
6.00000000e+00 6.00000000e+00 0.00000000e+00 
3.00000000e+00 6.33333349e+00 0.00000000e+00 
4.00000000e+00 6.33333349e+00 0.00000000e+00 
5.00000000e+00 6.33333349e+00 0.00000000e+00 
6.00000000e+00 6.33333349e+00 0.00000000e+00 
3.00000000e+00 6.66666651e+00 0.00000000e+00 
4.00000000e+00 6.66666651e+00 0.00000000e+00 
5.00000000e+00 6.66666651e+00 0.00000000e+00 
6.00000000e+00 6.66666651e+00 0.00000000e+00 
3.00000000e+00 7.00000000e+00 0.00000000e+00 
4.00000000e+00 7.00000000e+00 0.00000000e+00 
5.00000000e+00 7.00000000e+00 0.00000000e+00 
6.00000000e+00 7.00000000e+00 0.00000000e+00 

        </DataArray>
      </Points>
      <Cells>
        <DataArray type="Int32" Name="connectivity" format="ascii">
0 1 5 4
4 5 9 8
8 9 13 12
1 2 6 5
5 6 10 9
9 10 14 13
2 3 7 6
6 7 11 10
10 11 15 14

        </DataArray>
        <DataArray type="Int32" Name="offsets" format="ascii">
4 8 12 16 20 24 28 32 36 
        </DataArray>
        <DataArray type="UInt8" Name="types" format="ascii">
9 9 9 9 9 9 9 9 9 
        </DataArray>
      </Cells>
      <PointData>
        <DataArray type="Float64" Name="u">
          0.00000000e+00 2.78911336e+01 2.61421616e+01 3.16163869e+01 0.00000000e+00 4.08478415e+00 5.78597182e+00 1.01219345e+01 0.00000000e+00 -3.14459795e+00 -3.27895904e+00 -2.72649001e+00 0.00000000e+00 -5.29124306e+00 -7.42931087e+00 -1.00592824e+01 
        </DataArray>
        <DataArray type="Float64" Name="v">
          0.00000000e+00 -6.50596107e+00 -4.87249646e+00 -3.25316050e+00 0.00000000e+00 -1.09493860e+01 -6.85923472e+00 -2.92795051e+00 0.00000000e+00 -1.12861415e+01 -6.56735953e+00 -3.30581698e+00 0.00000000e+00 -9.50472143e+00 -6.56130645e+00 -3.77159541e+00 
        </DataArray>
        <DataArray type="Float64" Name="p">
          -3.09437298e+03 -2.98603044e+03 -2.87768791e+03 -2.76934537e+03 -3.01818598e+03 -2.94479160e+03 -2.87139721e+03 -2.79800283e+03 -2.94199899e+03 -2.90355276e+03 -2.86510652e+03 -2.82666029e+03 -2.86581200e+03 -2.86231391e+03 -2.85881583e+03 -2.85531774e+03 
        </DataArray>
      </PointData>
    </Piece>
    <Piece NumberOfPoints="16" NumberOfCells="9">
      <Points>
        <DataArray type="Float64" NumberOfComponents="3" format="ascii">
          3.00000000e+00 7.00000000e+00 0.00000000e+00 
4.00000000e+00 7.00000000e+00 0.00000000e+00 
5.00000000e+00 7.00000000e+00 0.00000000e+00 
6.00000000e+00 7.00000000e+00 0.00000000e+00 
3.00000000e+00 7.33333349e+00 0.00000000e+00 
4.00000000e+00 7.33333349e+00 0.00000000e+00 
5.00000000e+00 7.33333349e+00 0.00000000e+00 
6.00000000e+00 7.33333349e+00 0.00000000e+00 
3.00000000e+00 7.66666651e+00 0.00000000e+00 
4.00000000e+00 7.66666651e+00 0.00000000e+00 
5.00000000e+00 7.66666651e+00 0.00000000e+00 
6.00000000e+00 7.66666651e+00 0.00000000e+00 
3.00000000e+00 8.00000000e+00 0.00000000e+00 
4.00000000e+00 8.00000000e+00 0.00000000e+00 
5.00000000e+00 8.00000000e+00 0.00000000e+00 
6.00000000e+00 8.00000000e+00 0.00000000e+00 

        </DataArray>
      </Points>
      <Cells>
        <DataArray type="Int32" Name="connectivity" format="ascii">
0 1 5 4
4 5 9 8
8 9 13 12
1 2 6 5
5 6 10 9
9 10 14 13
2 3 7 6
6 7 11 10
10 11 15 14

        </DataArray>
        <DataArray type="Int32" Name="offsets" format="ascii">
4 8 12 16 20 24 28 32 36 
        </DataArray>
        <DataArray type="UInt8" Name="types" format="ascii">
9 9 9 9 9 9 9 9 9 
        </DataArray>
      </Cells>
      <PointData>
        <DataArray type="Float64" Name="u">
          0.00000000e+00 -5.29124306e+00 -7.42931087e+00 -1.00592824e+01 0.00000000e+00 -5.71165938e+00 -9.16501072e+00 -1.30615126e+01 0.00000000e+00 -5.28833975e+00 -9.11695108e+00 -1.34647249e+01 0.00000000e+00 -4.39090369e+00 -7.84822599e+00 -1.19656622e+01 
        </DataArray>
        <DataArray type="Float64" Name="v">
          0.00000000e+00 -9.50472143e+00 -6.56130645e+00 -3.77159541e+00 0.00000000e+00 -7.14985220e+00 -5.28466029e+00 -3.30236681e+00 0.00000000e+00 -5.22623910e+00 -4.03854897e+00 -2.61511243e+00 0.00000000e+00 -3.00404986e+00 -2.47570500e+00 -1.66252879e+00 
        </DataArray>
        <DataArray type="Float64" Name="p">
          -2.87107143e+03 -2.85675298e+03 -2.84243454e+03 -2.82811609e+03 -2.85077936e+03 -2.83924072e+03 -2.82770208e+03 -2.81616344e+03 -2.83048730e+03 -2.82172846e+03 -2.81296962e+03 -2.80421078e+03 -2.81019523e+03 -2.80421619e+03 -2.79823716e+03 -2.79225812e+03 
        </DataArray>
      </PointData>
    </Piece>
    <Piece NumberOfPoints="16" NumberOfCells="9">
      <Points>
        <DataArray type="Float64" NumberOfComponents="3" format="ascii">
          3.00000000e+00 8.00000000e+00 0.00000000e+00 
4.00000000e+00 8.00000000e+00 0.00000000e+00 
5.00000000e+00 8.00000000e+00 0.00000000e+00 
6.00000000e+00 8.00000000e+00 0.00000000e+00 
3.00000000e+00 8.33333302e+00 0.00000000e+00 
4.00000000e+00 8.33333302e+00 0.00000000e+00 
5.00000000e+00 8.33333302e+00 0.00000000e+00 
6.00000000e+00 8.33333302e+00 0.00000000e+00 
3.00000000e+00 8.66666698e+00 0.00000000e+00 
4.00000000e+00 8.66666698e+00 0.00000000e+00 
5.00000000e+00 8.66666698e+00 0.00000000e+00 
6.00000000e+00 8.66666698e+00 0.00000000e+00 
3.00000000e+00 9.00000000e+00 0.00000000e+00 
4.00000000e+00 9.00000000e+00 0.00000000e+00 
5.00000000e+00 9.00000000e+00 0.00000000e+00 
6.00000000e+00 9.00000000e+00 0.00000000e+00 

        </DataArray>
      </Points>
      <Cells>
        <DataArray type="Int32" Name="connectivity" format="ascii">
0 1 5 4
4 5 9 8
8 9 13 12
1 2 6 5
5 6 10 9
9 10 14 13
2 3 7 6
6 7 11 10
10 11 15 14

        </DataArray>
        <DataArray type="Int32" Name="offsets" format="ascii">
4 8 12 16 20 24 28 32 36 
        </DataArray>
        <DataArray type="UInt8" Name="types" format="ascii">
9 9 9 9 9 9 9 9 9 
        </DataArray>
      </Cells>
      <PointData>
        <DataArray type="Float64" Name="u">
          0.00000000e+00 -4.39090369e+00 -7.84822599e+00 -1.19656622e+01 0.00000000e+00 -3.18598295e+00 -5.73052447e+00 -9.08644913e+00 0.00000000e+00 -1.71670213e+00 -3.03131791e+00 -5.02679018e+00 0.00000000e+00 0.00000000e+00 0.00000000e+00 0.00000000e+00 
        </DataArray>
        <DataArray type="Float64" Name="v">
          0.00000000e+00 -3.00404986e+00 -2.47570500e+00 -1.66252879e+00 0.00000000e+00 -1.33208245e+00 -1.16457225e+00 -7.61253398e-01 0.00000000e+00 -4.19921396e-01 -3.97212290e-01 -2.51528104e-01 0.00000000e+00 0.00000000e+00 0.00000000e+00 0.00000000e+00 
        </DataArray>
        <DataArray type="Float64" Name="p">
          -2.81452950e+03 -2.80715946e+03 -2.79978942e+03 -2.79241938e+03 -2.81854897e+03 -2.81088971e+03 -2.80323044e+03 -2.79557117e+03 -2.82256845e+03 -2.81461995e+03 -2.80667145e+03 -2.79872295e+03 -2.82658793e+03 -2.81835020e+03 -2.81011247e+03 -2.80187474e+03 
        </DataArray>
      </PointData>
    </Piece>
    <Piece NumberOfPoints="16" NumberOfCells="9">
      <Points>
        <DataArray type="Float64" NumberOfComponents="3" format="ascii">
          6.00000000e+00 0.00000000e+00 0.00000000e+00 
7.00000000e+00 0.00000000e+00 0.00000000e+00 
8.00000000e+00 0.00000000e+00 0.00000000e+00 
9.00000000e+00 0.00000000e+00 0.00000000e+00 
6.00000000e+00 3.33333343e-01 0.00000000e+00 
7.00000000e+00 3.33333343e-01 0.00000000e+00 
8.00000000e+00 3.33333343e-01 0.00000000e+00 
9.00000000e+00 3.33333343e-01 0.00000000e+00 
6.00000000e+00 6.66666687e-01 0.00000000e+00 
7.00000000e+00 6.66666687e-01 0.00000000e+00 
8.00000000e+00 6.66666687e-01 0.00000000e+00 
9.00000000e+00 6.66666687e-01 0.00000000e+00 
6.00000000e+00 1.00000000e+00 0.00000000e+00 
7.00000000e+00 1.00000000e+00 0.00000000e+00 
8.00000000e+00 1.00000000e+00 0.00000000e+00 
9.00000000e+00 1.00000000e+00 0.00000000e+00 

        </DataArray>
      </Points>
      <Cells>
        <DataArray type="Int32" Name="connectivity" format="ascii">
0 1 5 4
4 5 9 8
8 9 13 12
1 2 6 5
5 6 10 9
9 10 14 13
2 3 7 6
6 7 11 10
10 11 15 14

        </DataArray>
        <DataArray type="Int32" Name="offsets" format="ascii">
4 8 12 16 20 24 28 32 36 
        </DataArray>
        <DataArray type="UInt8" Name="types" format="ascii">
9 9 9 9 9 9 9 9 9 
        </DataArray>
      </Cells>
      <PointData>
        <DataArray type="Float64" Name="u">