<?xml version="1.0"?>
<VTKFile type="UnstructuredGrid" version="0.1" byte_order="LittleEndian">
  <UnstructuredGrid>
    <Piece NumberOfPoints="16" NumberOfCells="9">
      <Points>
        <DataArray type="Float64" NumberOfComponents="3" format="ascii">
          0.00000000e+00 3.00000000e+00 0.00000000e+00 
1.00000000e+00 3.00000000e+00 0.00000000e+00 
2.00000000e+00 3.00000000e+00 0.00000000e+00 
3.00000000e+00 3.00000000e+00 0.00000000e+00 
0.00000000e+00 3.33333325e+00 0.00000000e+00 
1.00000000e+00 3.33333325e+00 0.00000000e+00 
2.00000000e+00 3.33333325e+00 0.00000000e+00 
3.00000000e+00 3.33333325e+00 0.00000000e+00 
0.00000000e+00 3.66666675e+00 0.00000000e+00 
1.00000000e+00 3.66666675e+00 0.00000000e+00 
2.00000000e+00 3.66666675e+00 0.00000000e+00 
3.00000000e+00 3.66666675e+00 0.00000000e+00 
0.00000000e+00 4.00000000e+00 0.00000000e+00 
1.00000000e+00 4.00000000e+00 0.00000000e+00 
2.00000000e+00 4.00000000e+00 0.00000000e+00 
3.00000000e+00 4.00000000e+00 0.00000000e+00 

        </DataArray>
      </Points>
      <Cells>
        <DataArray type="Int32" Name="connectivity" format="ascii">
0 1 5 4
4 5 9 8
8 9 13 12
1 2 6 5
5 6 10 9
9 10 14 13
2 3 7 6
6 7 11 10
10 11 15 14

        </DataArray>
        <DataArray type="Int32" Name="offsets" format="ascii">
4 8 12 16 20 24 28 32 36 
        </DataArray>
        <DataArray type="UInt8" Name="types" format="ascii">
9 9 9 9 9 9 9 9 9 
        </DataArray>
      </Cells>
      <PointData>
        <DataArray type="Float64" Name="u">
          0.00000000e+00 0.00000000e+00 0.00000000e+00 0.00000000e+00 8.88888889e+01 8.91086691e+01 8.74147059e+01 8.51876536e+01 1.55555556e+02 1.57222262e+02 1.53092180e+02 1.53739473e+02 2.00000000e+02 2.03533489e+02 1.97040623e+02 2.01831995e+02 
        </DataArray>
        <DataArray type="Float64" Name="v">
          0.00000000e+00 0.00000000e+00 0.00000000e+00 0.00000000e+00 0.00000000e+00 8.92726600e-04 3.56296227e-01 -6.29034561e-01 0.00000000e+00 9.56451446e-03 3.85576474e-01 -2.25581334e-01 0.00000000e+00 3.70463995e-02 2.86035261e-01 1.20855800e-02 
        </DataArray>
        <DataArray type="Float64" Name="p">
          2.27905585e+04 1.51695035e+04 7.54844846e+03 -7.26065597e+01 2.27877613e+04 1.51667899e+04 7.54581839e+03 -7.51530797e+01 2.27849642e+04 1.51640762e+04 7.54318832e+03 -7.76995996e+01 2.27821670e+04 1.51613626e+04 7.54055825e+03 -8.02461196e+01 
        </DataArray>
      </PointData>
    </Piece>
    <Piece NumberOfPoints="16" NumberOfCells="9">
      <Points>
        <DataArray type="Float64" NumberOfComponents="3" format="ascii">
          0.00000000e+00 4.00000000e+00 0.00000000e+00 
1.00000000e+00 4.00000000e+00 0.00000000e+00 
2.00000000e+00 4.00000000e+00 0.00000000e+00 
3.00000000e+00 4.00000000e+00 0.00000000e+00 
0.00000000e+00 4.33333349e+00 0.00000000e+00 
1.00000000e+00 4.33333349e+00 0.00000000e+00 
2.00000000e+00 4.33333349e+00 0.00000000e+00 
3.00000000e+00 4.33333349e+00 0.00000000e+00 
0.00000000e+00 4.66666651e+00 0.00000000e+00 
1.00000000e+00 4.66666651e+00 0.00000000e+00 
2.00000000e+00 4.66666651e+00 0.00000000e+00 
3.00000000e+00 4.66666651e+00 0.00000000e+00 
0.00000000e+00 5.00000000e+00 0.00000000e+00 
1.00000000e+00 5.00000000e+00 0.00000000e+00 
2.00000000e+00 5.00000000e+00 0.00000000e+00 
3.00000000e+00 5.00000000e+00 0.00000000e+00 

        </DataArray>
      </Points>
      <Cells>
        <DataArray type="Int32" Name="connectivity" format="ascii">
0 1 5 4
4 5 9 8
8 9 13 12
1 2 6 5
5 6 10 9
9 10 14 13
2 3 7 6
6 7 11 10
10 11 15 14

        </DataArray>
        <DataArray type="Int32" Name="offsets" format="ascii">
4 8 12 16 20 24 28 32 36 
        </DataArray>
        <DataArray type="UInt8" Name="types" format="ascii">
9 9 9 9 9 9 9 9 9 
        </DataArray>
      </Cells>
      <PointData>
        <DataArray type="Float64" Name="u">
          2.00000000e+02 2.03533489e+02 1.97040623e+02 2.01831995e+02 2.22222222e+02 2.27022424e+02 2.19090352e+02 2.26518210e+02 2.22222222e+02 2.27022424e+02 2.19090352e+02 2.26518210e+02 2.00000000e+02 2.03533489e+02 1.97040623e+02 2.01831995e+02 
        </DataArray>
        <DataArray type="Float64" Name="v">
          0.00000000e+00 3.70463995e-02 2.86035261e-01 1.20855800e-02 0.00000000e+00 1.84609148e-02 3.80057370e-02 2.67698349e-01 0.00000000e+00 -1.84609147e-02 -3.80057372e-02 -2.67698348e-01 0.00000000e+00 -3.70463995e-02 -2.86035261e-01 -1.20855795e-02 
        </DataArray>
        <DataArray type="Float64" Name="p">
          2.27808928e+04 1.51593850e+04 7.53787715e+03 -8.36306688e+01 2.27808928e+04 1.51593850e+04 7.53787715e+03 -8.36306688e+01 2.27808928e+04 1.51593850e+04 7.53787715e+03 -8.36306688e+01 2.27808928e+04 1.51593850e+04 7.53787715e+03 -8.36306688e+01 
        </DataArray>
      </PointData>
    </Piece>
    <Piece NumberOfPoints="16" NumberOfCells="9">
      <Points>
        <DataArray type="Float64" NumberOfComponents="3" format="ascii">
          0.00000000e+00 5.00000000e+00 0.00000000e+00 
1.00000000e+00 5.00000000e+00 0.00000000e+00 
2.00000000e+00 5.00000000e+00 0.00000000e+00 
3.00000000e+00 5.00000000e+00 0.00000000e+00 
0.00000000e+00 5.33333349e+00 0.00000000e+00 
1.00000000e+00 5.33333349e+00 0.00000000e+00 
2.00000000e+00 5.33333349e+00 0.00000000e+00 
3.00000000e+00 5.33333349e+00 0.00000000e+00 
0.00000000e+00 5.66666651e+00 0.00000000e+00 
1.00000000e+00 5.66666651e+00 0.00000000e+00 
2.00000000e+00 5.66666651e+00 0.00000000e+00 
3.00000000e+00 5.66666651e+00 0.00000000e+00 
0.00000000e+00 6.00000000e+00 0.00000000e+00 
1.00000000e+00 6.00000000e+00 0.00000000e+00 
2.00000000e+00 6.00000000e+00 0.00000000e+00 
3.00000000e+00 6.00000000e+00 0.00000000e+00 

        </DataArray>
      </Points>
      <Cells>
        <DataArray type="Int32" Name="connectivity" format="ascii">
0 1 5 4
4 5 9 8
8 9 13 12
1 2 6 5
5 6 10 9
9 10 14 13
2 3 7 6
6 7 11 10
10 11 15 14

        </DataArray>
        <DataArray type="Int32" Name="offsets" format="ascii">
4 8 12 16 20 24 28 32 36 
        </DataArray>
        <DataArray type="UInt8" Name="types" format="ascii">
9 9 9 9 9 9 9 9 9 
        </DataArray>
      </Cells>
      <PointData>
        <DataArray type="Float64" Name="u">
          2.00000000e+02 2.03533489e+02 1.97040623e+02 2.01831995e+02 1.55555556e+02 1.57222262e+02 1.53092180e+02 1.53739473e+02 8.88888889e+01 8.91086691e+01 8.74147059e+01 8.51876536e+01 0.00000000e+00 0.00000000e+00 0.00000000e+00 0.00000000e+00 
        </DataArray>
        <DataArray type="Float64" Name="v">
          0.00000000e+00 -3.70463995e-02 -2.86035261e-01 -1.20855795e-02 0.00000000e+00 -9.56451443e-03 -3.85576474e-01 2.25581335e-01 0.00000000e+00 -8.92726600e-04 -3.56296227e-01 6.29034562e-01 0.00000000e+00 0.00000000e+00 0.00000000e+00 0.00000000e+00 
        </DataArray>
        <DataArray type="Float64" Name="p">
          2.27821670e+04 1.51613626e+04 7.54055825e+03 -8.02461196e+01 2.27849642e+04 1.51640762e+04 7.54318832e+03 -7.76995996e+01 2.27877613e+04 1.51667899e+04 7.54581839e+03 -7.51530797e+01 2.27905585e+04 1.51695035e+04 7.54844846e+03 -7.26065597e+01 
        </DataArray>
      </PointData>
    </Piece>
    <Piece NumberOfPoints="16" NumberOfCells="9">
      <Points>
        <DataArray type="Float64" NumberOfComponents="3" format="ascii">
          3.00000000e+00 0.00000000e+00 0.00000000e+00 
4.00000000e+00 0.00000000e+00 0.00000000e+00 
5.00000000e+00 0.00000000e+00 0.00000000e+00 
6.00000000e+00 0.00000000e+00 0.00000000e+00 
3.00000000e+00 3.33333343e-01 0.00000000e+00 
4.00000000e+00 3.33333343e-01 0.00000000e+00 
5.00000000e+00 3.33333343e-01 0.00000000e+00 
6.00000000e+00 3.33333343e-01 0.00000000e+00 
3.00000000e+00 6.66666687e-01 0.00000000e+00 
4.00000000e+00 6.66666687e-01 0.00000000e+00 
5.00000000e+00 6.66666687e-01 0.00000000e+00 
6.00000000e+00 6.66666687e-01 0.00000000e+00 
3.00000000e+00 1.00000000e+00 0.00000000e+00 
4.00000000e+00 1.00000000e+00 0.00000000e+00 
5.00000000e+00 1.00000000e+00 0.00000000e+00 
6.00000000e+00 1.00000000e+00 0.00000000e+00 

        </DataArray>
      </Points>
      <Cells>
        <DataArray type="Int32" Name="connectivity" format="ascii">
0 1 5 4
4 5 9 8
8 9 13 12
1 2 6 5
5 6 10 9
9 10 14 13
2 3 7 6
6 7 11 10
10 11 15 14

        </DataArray>
        <DataArray type="Int32" Name="offsets" format="ascii">
4 8 12 16 20 24 28 32 36 
        </DataArray>
        <DataArray type="UInt8" Name="types" format="ascii">
9 9 9 9 9 9 9 9 9 
        </DataArray>
      </Cells>
      <PointData>
        <DataArray type="Float64" Name="u">
          0.00000000e+00 0.00000000e+00 0.00000000e+00 0.00000000e+00 0.00000000e+00 -1.38960009e+01 -4.57309543e+00 -4.13020207e+00 0.00000000e+00 -2.28777711e+01 -5.06059780e+00 -3.95824950e+00 0.00000000e+00 -2.70292436e+01 -1.89895316e+00 4.96182123e-01 
        </DataArray>
        <DataArray type="Float64" Name="v">
          0.00000000e+00 0.00000000e+00 0.00000000e+00 0.00000000e+00 0.00000000e+00 3.86208988e-01 -7.04866897e-04 -5.54950864e-01 0.00000000e+00 1.09722446e+00 -2.59775329e-01 -1.46944126e+00 0.00000000e+00 2.16837090e+00 -7.30910439e-01 -2.72776988e+00 
        </DataArray>
        <DataArray type="Float64" Name="p">
          -9.46717965e+02 6.65371179e+02 2.27746032e+03 3.88954947e+03 -9.31556973e+02 6.70398522e+02 2.27235402e+03 3.87430951e+03 -9.16395982e+02 6.75425865e+02 2.26724771e+03 3.85906956e+03 -9.01234990e+02 6.80453208e+02 2.26214141e+03 3.84382960e+03 
        </DataArray>
      </PointData>
    </Piece>
    <Piece NumberOfPoints="16" NumberOfCells="9">
      <Points>
        <DataArray type="Float64" NumberOfComponents="3" format="ascii">
          3.00000000e+00 1.00000000e+00 0.00000000e+00 
4.00000000e+00 1.00000000e+00 0.00000000e+00 
5.00000000e+00 1.00000000e+00 0.00000000e+00 
6.00000000e+00 1.00000000e+00 0.00000000e+00 
3.00000000e+00 1.33333337e+00 0.00000000e+00 
4.00000000e+00 1.33333337e+00 0.00000000e+00 
5.00000000e+00 1.33333337e+00 0.00000000e+00 
6.00000000e+00 1.33333337e+00 0.00000000e+00 
3.00000000e+00 1.66666663e+00 0.00000000e+00 
4.00000000e+00 1.66666663e+00 0.00000000e+00 
5.00000000e+00 1.66666663e+00 0.00000000e+00 
6.00000000e+00 1.66666663e+00 0.00000000e+00 
3.00000000e+00 2.00000000e+00 0.00000000e+00 
4.00000000e+00 2.00000000e+00 0.00000000e+00 
5.00000000e+00 2.00000000e+00 0.00000000e+00 
6.00000000e+00 2.00000000e+00 0.00000000e+00 

        </DataArray>
      </Points>
      <Cells>
        <DataArray type="Int32" Name="connectivity" format="ascii">
0 1 5 4
4 5 9 8
8 9 13 12
1 2 6 5
5 6 10 9
9 10 14 13
2 3 7 6
6 7 11 10
10 11 15 14

        </DataArray>
        <DataArray type="Int32" Name="offsets" format="ascii">
4 8 12 16 20 24 28 32 36 
        </DataArray>
        <DataArray type="UInt8" Name="types" format="ascii">
9 9 9 9 9 9 9 9 9 
        </DataArray>
      </Cells>
      <PointData>
        <DataArray type="Float64" Name="u">
          0.00000000e+00 -2.70292436e+01 -1.89895316e+00 4.96182123e-01 0.00000000e+00 -2.62462436e+01 4.50110388e+00 9.01112621e+00 0.00000000e+00 -2.00767762e+01 1.40700775e+01 2.08524479e+01 0.00000000e+00 -7.77862048e+00 2.70744463e+01 3.49229821e+01 
        </DataArray>
        <DataArray type="Float64" Name="v">
          0.00000000e+00 2.16837090e+00 -7.30910439e-01 -2.72776988e+00 0.00000000e+00 3.15068330e+00 -1.47288455e+00 -4.21967115e+00 0.00000000e+00 3.66356272e+00 -2.36261061e+00 -5.74262204e+00 0.00000000e+00 3.64516006e+00 -3.54056656e+00 -7.06316142e+00 
        </DataArray>
        <DataArray type="Float64" Name="p">
          -9.01644987e+02 6.78954233e+02 2.25955345e+03 3.84015267e+03 -9.17179824e+02 6.67612609e+02 2.25240504e+03 3.83719747e+03 -9.32714660e+02 6.56270985e+02 2.24525663e+03 3.83424227e+03 -9.48249497e+02 6.44929361e+02 2.23810822e+03 3.83128708e+03 
        </DataArray>
      </PointData>
    </Piece>
    <Piece NumberOfPoints="16" NumberOfCells="9">
      <Points>
        <DataArray type="Float64" NumberOfComponents="3" format="ascii">
          3.00000000e+00 2.00000000e+00 0.00000000e+00 
4.00000000e+00 2.00000000e+00 0.00000000e+00 
5.00000000e+00 2.00000000e+00 0.00000000e+00 
6.00000000e+00 2.00000000e+00 0.00000000e+00 
3.00000000e+00 2.33333325e+00 0.00000000e+00 
4.00000000e+00 2.33333325e+00 0.00000000e+00 
5.00000000e+00 2.33333325e+00 0.00000000e+00 
6.00000000e+00 2.33333325e+00 0.00000000e+00 
3.00000000e+00 2.66666675e+00 0.00000000e+00 
4.00000000e+00 2.66666675e+00 0.00000000e+00 
5.00000000e+00 2.66666675e+00 0.00000000e+00 
6.00000000e+00 2.66666675e+00 0.00000000e+00 
3.00000000e+00 3.00000000e+00 0.00000000e+00 
4.00000000e+00 3.00000000e+00 0.00000000e+00 
5.00000000e+00 3.00000000e+00 0.00000000e+00 
6.00000000e+00 3.00000000e+00 0.00000000e+00 

        </DataArray>
      </Points>
      <Cells>
        <DataArray type="Int32" Name="connectivity" format="ascii">
0 1 5 4
4 5 9 8
8 9 13 12
1 2 6 5
5 6 10 9
9 10 14 13
2 3 7 6
6 7 11 10
10 11 15 14

        </DataArray>
        <DataArray type="Int32" Name="offsets" format="ascii">
4 8 12 16 20 24 28 32 36 
        </DataArray>
        <DataArray type="UInt8" Name="types" format="ascii">
9 9 9 9 9 9 9 9 9 
        </DataArray>
      </Cells>
      <PointData>
        <DataArray type="Float64" Name="u">
          0.00000000e+00 -7.77862048e+00 2.70744463e+01 3.49229821e+01 0.00000000e+00 1.16534715e+01 4.38636017e+01 5.00125809e+01 0.00000000e+00 3.92392030e+01 6.41382998e+01 6.54857464e+01 0.00000000e+00 7.52664289e+01 8.59241839e+01 8.23472836e+01 
        </DataArray>
        <DataArray type="Float64" Name="v">
          0.00000000e+00 3.64516006e+00 -3.54056656e+00 -7.06316142e+00 0.00000000e+00 2.64865031e+00 -4.85562500e+00 -7.72036093e+00 0.00000000e+00 6.74056319e-02 -5.87203651e+00 -7.09419905e+00 0.00000000e+00 -4.12951379e+00 -6.65186204e+00 -5.32293660e+00 
        </DataArray>
        <DataArray type="Float64" Name="p">
          -9.43685615e+02 6.45175901e+02 2.23403742e+03 3.82289893e+03 -1.00058408e+03 6.24552804e+02 2.24968968e+03 3.87482656e+03 -1.05748254e+03 6.03929708e+02 2.26534195e+03 3.92675420e+03 -1.11438100e+03 5.83306611e+02 2.28099422e+03 3.97868183e+03 
        </DataArray>
      </PointData>
    </Piece>
    <Piece NumberOfPoints="16" NumberOfCells="9">
      <Points>
        <DataArray type="Float64" NumberOfComponents="3" format="ascii">
          3.00000000e+00 3.00000000e+00 0.00000000e+00 
4.00000000e+00 3.00000000e+00 0.00000000e+00 
5.00000000e+00 3.00000000e+00 0.00000000e+00 
6.00000000e+00 3.00000000e+00 0.00000000e+00 
3.00000000e+00 3.33333325e+00 0.00000000e+00 
4.00000000e+00 3.33333325e+00 0.00000000e+00 
5.00000000e+00 3.33333325e+00 0.00000000e+00 
6.00000000e+00 3.33333325e+00 0.00000000e+00 
3.00000000e+00 3.66666675e+00 0.00000000e+00 
4.00000000e+00 3.66666675e+00 0.00000000e+00 
5.00000000e+00 3.66666675e+00 0.00000000e+00 
6.00000000e+00 3.66666675e+00 0.00000000e+00 
3.00000000e+00 4.00000000e+00 0.00000000e+00 
4.00000000e+00 4.00000000e+00 0.00000000e+00 
5.00000000e+00 4.00000000e+00 0.00000000e+00 
6.00000000e+00 4.00000000e+00 0.00000000e+00 

        </DataArray>
      </Points>
      <Cells>
        <DataArray type="Int32" Name="connectivity" format="ascii">
0 1 5 4
4 5 9 8
8 9 13 12
1 2 6 5
5 6 10 9
9 10 14 13
2 3 7 6
6 7 11 10
10 11 15 14

        </DataArray>
        <DataArray type="Int32" Name="offsets" format="ascii">
4 8 12 16 20 24 28 32 36 
        </DataArray>
        <DataArray type="UInt8" Name="types" format="ascii">
9 9 9 9 9 9 9 9 9 
        </DataArray>
      </Cells>
      <PointData>
        <DataArray type="Float64" Name="u">
          0.00000000e+00 7.52664289e+01 8.59241839e+01 8.23472836e+01 8.51876536e+01 1.05142956e+02 1.10142143e+02 9.14659113e+01 1.53739473e+02 1.37028990e+02 1.29654535e+02 1.02265803e+02 2.01831995e+02 1.62991012e+02 1.43494327e+02 1.11265130e+02 
        </DataArray>
        <DataArray type="Float64" Name="v">
          0.00000000e+00 -4.12951379e+00 -6.65186204e+00 -5.32293660e+00 -6.29034561e-01 -7.25906087e+00 -6.59531195e+00 -2.93779410e+00 -2.25581334e-01 -7.41345810e+00 -5.81912432e+00 -1.20554716e+00 1.20855800e-02 -5.40621737e+00 -3.87298470e+00 -2.54488901e-01 
        </DataArray>
        <DataArray type="Float64" Name="p">
          -1.12961815e+03 5.81298736e+02 2.29221562e+03 4.00313251e+03 -9.90544729e+02 6.53597942e+02 2.29774061e+03 3.94188328e+03 -8.51471305e+02 7.25897148e+02 2.30326560e+03 3.88063406e+03 -7.12397881e+02 7.98196355e+02 2.30879059e+03 3.81938483e+03 
        </DataArray>
      </PointData>
    </Piece>
    <Piece NumberOfPoints="16" NumberOfCells="9">
      <Points>
        <DataArray type="Float64" NumberOfComponents="3" format="ascii">
          3.00000000e+00 4.00000000e+00 0.00000000e+00 
4.00000000e+00 4.00000000e+00 0.00000000e+00 
5.00000000e+00 4.00000000e+00 0.00000000e+00 
6.00000000e+00 4.00000000e+00 0.00000000e+00 
3.00000000e+00 4.33333349e+00 0.00000000e+00 
4.00000000e+00 4.33333349e+00 0.00000000e+00 
5.00000000e+00 4.33333349e+00 0.00000000e+00 
6.00000000e+00 4.33333349e+00 0.00000000e+00 
3.00000000e+00 4.66666651e+00 0.00000000e+00 
4.00000000e+00 4.66666651e+00 0.00000000e+00 
5.00000000e+00 4.66666651e+00 0.00000000e+00 
6.00000000e+00 4.66666651e+00 0.00000000e+00 
3.00000000e+00 5.00000000e+00 0.00000000e+00 
4.00000000e+00 5.00000000e+00 0.00000000e+00 
5.00000000e+00 5.00000000e+00 0.00000000e+00 
6.00000000e+00 5.00000000e+00 0.00000000e+00 

        </DataArray>
      </Points>
      <Cells>
        <DataArray type="Int32" Name="connectivity" format="ascii">
0 1 5 4
4 5 9 8
8 9 13 12
1 2 6 5
5 6 10 9
9 10 14 13
2 3 7 6
6 7 11 10
10 11 15 14

        </DataArray>
        <DataArray type="Int32" Name="offsets" format="ascii">
4 8 12 16 20 24 28 32 36 
        </DataArray>
        <DataArray type="UInt8" Name="types" format="ascii">
9 9 9 9 9 9 9 9 9 
        </DataArray>
      </Cells>
      <PointData>
        <DataArray type="Float64" Name="u">
          2.01831995e+02 1.62991012e+02 1.43494327e+02 1.11265130e+02 2.26518210e+02 1.77285952e+02 1.50647765e+02 1.16307117e+02 2.26518210e+02 1.77285952e+02 1.50647765e+02 1.16307117e+02 2.01831995e+02 1.62991012e+02 1.43494327e+02 1.11265130e+02 
        </DataArray>
        <DataArray type="Float64" Name="v">
          1.20855800e-02 -5.40621737e+00 -3.87298470e+00 -2.54488901e-01 2.67698349e-01 -1.56862467e+00 -1.40728098e+00 -7.92928817e-02 -2.67698348e-01 1.56862467e+00 1.40728098e+00 7.92928816e-02 -1.20855795e-02 5.40621737e+00 3.87298470e+00 2.54488901e-01 
        </DataArray>
        <DataArray type="Float64" Name="p">
          -6.41233163e+02 8.31370019e+02 2.30397320e+03 3.77657638e+03 -6.41233163e+02 8.31370019e+02 2.30397320e+03 3.77657638e+03 -6.41233163e+02 8.31370019e+02 2.30397320e+03 3.77657638e+03 -6.41233163e+02 8.31370019e+02 2.30397320e+03 3.77657638e+03 
        </DataArray>
      </PointData>
    </Piece>
    <Piece NumberOfPoints="16" NumberOfCells="9">
      <Points>
        <DataArray type="Float64" NumberOfComponents="3" format="ascii">
          3.00000000e+00 5.00000000e+00 0.00000000e+00 
4.00000000e+00 5.00000000e+00 0.00000000e+00 
5.00000000e+00 5.00000000e+00 0.00000000e+00 
6.00000000e+00 5.00000000e+00 0.00000000e+00 
3.00000000e+00 5.33333349e+00 0.00000000e+00 
4.00000000e+00 5.33333349e+00 0.00000000e+00 
5.00000000e+00 5.33333349e+00 0.00000000e+00 
6.00000000e+00 5.33333349e+00 0.00000000e+00 
3.00000000e+00 5.66666651e+00 0.00000000e+00 
4.00000000e+00 5.66666651e+00 0.00000000e+00 
5.00000000e+00 5.66666651e+00 0.00000000e+00 
6.00000000e+00 5.66666651e+00 0.00000000e+00 
3.00000000e+00 6.00000000e+00 0.00000000e+00 
4.00000000e+00 6.00000000e+00 0.00000000e+00 
5.00000000e+00 6.00000000e+00 0.00000000e+00 
6.00000000e+00 6.00000000e+00 0.00000000e+00 

        </DataArray>
      </Points>
      <Cells>
        <DataArray type="Int32" Name="connectivity" format="ascii">
0 1 5 4
4 5 9 8
8 9 13 12
1 2 6 5
5 6 10 9
9 10 14 13
2 3 7 6
6 7 11 10
10 11 15 14

        </DataArray>
        <DataArray type="Int32" Name="offsets" format="ascii">
4 8 12 16 20 24 28 32 36 
        </DataArray>
        <DataArray type="UInt8" Name="types" format="ascii">
9 9 9 9 9 9 9 9 9 
        </DataArray>
      </Cells>
      <PointData>
        <DataArray type="Float64" Name="u">
          2.01831995e+02 1.62991012e+02 1.43494327e+02 1.11265130e+02 1.53739473e+02 1.37028990e+02 1.29654535e+02 1.02265803e+02 8.51876536e+01 1.05142956e+02 1.10142143e+02 9.14659113e+01 0.00000000e+00 7.52664289e+01 8.59241839e+01 8.23472836e+01 
        </DataArray>
        <DataArray type="Float64" Name="v">
          -1.20855795e-02 5.40621737e+00 3.87298470e+00 2.54488901e-01 2.25581335e-01 7.41345810e+00 5.81912432e+00 1.20554716e+00 6.29034562e-01 7.25906087e+00 6.59531195e+00 2.93779410e+00 0.00000000e+00 4.12951379e+00 6.65186204e+00 5.32293660e+00 
        </DataArray>
        <DataArray type="Float64" Name="p">
          -7.12397881e+02 7.98196355e+02 2.30879059e+03 3.81938483e+03 -8.51471305e+02 7.25897149e+02 2.30326560e+03 3.88063406e+03 -9.90544729e+02 6.53597942e+02 2.29774061e+03 3.94188328e+03 -1.12961815e+03 5.81298736e+02 2.29221562e+03 4.00313251e+03 
        </DataArray>
      </PointData>
    </Piece>
    <Piece NumberOfPoints="16" NumberOfCells="9">
      <Points>
        <DataArray type="Float64" NumberOfComponents="3" format="ascii">
          3.00000000e+00 6.00000000e+00 0.00000000e+00 
4.00000000e+00 6.00000000e+00 0.00000000e+00 
5.00000000e+00 6.00000000e+00 0.00000000e+00 
6.00000000e+00 6.00000000e+00 0.00000000e+00 
3.00000000e+00 6.33333349e+00 0.00000000e+00 
4.00000000e+00 6.33333349e+00 0.00000000e+00 
5.00000000e+00 6.33333349e+00 0.00000000e+00 
6.00000000e+00 6.33333349e+00 0.00000000e+00 
3.00000000e+00 6.66666651e+00 0.00000000e+00 
4.00000000e+00 6.66666651e+00 0.00000000e+00 
5.00000000e+00 6.66666651e+00 0.00000000e+00 
6.00000000e+00 6.66666651e+00 0.00000000e+00 
3.00000000e+00 7.00000000e+00 0.00000000e+00 
4.00000000e+00 7.00000000e+00 0.00000000e+00 
5.00000000e+00 7.00000000e+00 0.00000000e+00 
6.00000000e+00 7.00000000e+00 0.00000000e+00 

        </DataArray>
      </Points>
      <Cells>
        <DataArray type="Int32" Name="connectivity" format="ascii">
0 1 5 4
4 5 9 8
8 9 13 12
1 2 6 5
5 6 10 9
9 10 14 13
2 3 7 6
6 7 11 10
10 11 15 14

        </DataArray>
        <DataArray type="Int32" Name="offsets" format="ascii">
4 8 12 16 20 24 28 32 36 
        </DataArray>
        <DataArray type="UInt8" Name="types" format="ascii">
9 9 9 9 9 9 9 9 9 
        </DataArray>
      </Cells>
      <PointData>
        <DataArray type="Float64" Name="u">
          0.00000000e+00 7.52664289e+01 8.59241839e+01 8.23472836e+01 0.00000000e+00 3.92392030e+01 6.41382998e+01 6.54857464e+01 0.00000000e+00 1.16534715e+01 4.38636017e+01 5.00125809e+01 0.00000000e+00 -7.77862048e+00 2.70744463e+01 3.49229821e+01 
        </DataArray>
        <DataArray type="Float64" Name="v">
          0.00000000e+00 4.12951379e+00 6.65186204e+00 5.32293660e+00 0.00000000e+00 -6.74056320e-02 5.87203651e+00 7.09419905e+00 0.00000000e+00 -2.64865031e+00 4.85562500e+00 7.72036093e+00 0.00000000e+00 -3.64516006e+00 3.54056656e+00 7.06316142e+00 
        </DataArray>
        <DataArray type="Float64" Name="p">
          -1.11438100e+03 5.83306611e+02 2.28099422e+03 3.97868183e+03 -1.05748254e+03 6.03929708e+02 2.26534195e+03 3.92675420e+03 -1.00058408e+03 6.24552804e+02 2.24968968e+03 3.87482656e+03 -9.43685615e+02 6.45175901e+02 2.23403742e+03 3.82289893e+03 
        </DataArray>
      </PointData>
    </Piece>
    <Piece NumberOfPoints="16" NumberOfCells="9">
      <Points>
        <DataArray type="Float64" NumberOfComponents="3" format="ascii">
          3.00000000e+00 7.00000000e+00 0.00000000e+00 
4.00000000e+00 7.00000000e+00 0.00000000e+00 
5.00000000e+00 7.00000000e+00 0.00000000e+00 
6.00000000e+00 7.00000000e+00 0.00000000e+00 
3.00000000e+00 7.33333349e+00 0.00000000e+00 
4.00000000e+00 7.33333349e+00 0.00000000e+00 
5.00000000e+00 7.33333349e+00 0.00000000e+00 
6.00000000e+00 7.33333349e+00 0.00000000e+00 
3.00000000e+00 7.66666651e+00 0.00000000e+00 
4.00000000e+00 7.66666651e+00 0.00000000e+00 
5.00000000e+00 7.66666651e+00 0.00000000e+00 
6.00000000e+00 7.66666651e+00 0.00000000e+00 
3.00000000e+00 8.00000000e+00 0.00000000e+00 
4.00000000e+00 8.00000000e+00 0.00000000e+00 
5.00000000e+00 8.00000000e+00 0.00000000e+00 
6.00000000e+00 8.00000000e+00 0.00000000e+00 

        </DataArray>
      </Points>
      <Cells>
        <DataArray type="Int32" Name="connectivity" format="ascii">
0 1 5 4
4 5 9 8
8 9 13 12
1 2 6 5
5 6 10 9
9 10 14 13
2 3 7 6
6 7 11 10
10 11 15 14

        </DataArray>
        <DataArray type="Int32" Name="offsets" format="ascii">
4 8 12 16 20 24 28 32 36 
        </DataArray>
        <DataArray type="UInt8" Name="types" format="ascii">
9 9 9 9 9 9 9 9 9 
        </DataArray>
      </Cells>
      <PointData>
        <DataArray type="Float64" Name="u">
          0.00000000e+00 -7.77862048e+00 2.70744463e+01 3.49229821e+01 0.00000000e+00 -2.00767762e+01 1.40700775e+01 2.08524479e+01 0.00000000e+00 -2.62462436e+01 4.50110388e+00 9.01112621e+00 0.00000000e+00 -2.70292436e+01 -1.89895316e+00 4.96182122e-01 
        </DataArray>
        <DataArray type="Float64" Name="v">
          0.00000000e+00 -3.64516006e+00 3.54056656e+00 7.06316142e+00 0.00000000e+00 -3.66356272e+00 2.36261061e+00 5.74262204e+00 0.00000000e+00 -3.15068330e+00 1.47288455e+00 4.21967115e+00 0.00000000e+00 -2.16837090e+00 7.30910439e-01 2.72776988e+00 
        </DataArray>
        <DataArray type="Float64" Name="p">
          -9.48249497e+02 6.44929361e+02 2.23810822e+03 3.83128708e+03 -9.32714660e+02 6.56270985e+02 2.24525663e+03 3.83424227e+03 -9.17179824e+02 6.67612609e+02 2.25240504e+03 3.83719747e+03 -9.01644987e+02 6.78954233e+02 2.25955345e+03 3.84015267e+03 
        </DataArray>
      </PointData>
    </Piece>
    <Piece NumberOfPoints="16" NumberOfCells="9">
      <Points>
        <DataArray type="Float64" NumberOfComponents="3" format="ascii">
          3.00000000e+00 8.00000000e+00 0.00000000e+00 
4.00000000e+00 8.00000000e+00 0.00000000e+00 
5.00000000e+00 8.00000000e+00 0.00000000e+00 
6.00000000e+00 8.00000000e+00 0.00000000e+00 
3.00000000e+00 8.33333302e+00 0.00000000e+00 
4.00000000e+00 8.33333302e+00 0.00000000e+00 
5.00000000e+00 8.33333302e+00 0.00000000e+00 
6.00000000e+00 8.33333302e+00 0.00000000e+00 
3.00000000e+00 8.66666698e+00 0.00000000e+00 
4.00000000e+00 8.66666698e+00 0.00000000e+00 
5.00000000e+00 8.66666698e+00 0.00000000e+00 
6.00000000e+00 8.66666698e+00 0.00000000e+00 
3.00000000e+00 9.00000000e+00 0.00000000e+00 
4.00000000e+00 9.00000000e+00 0.00000000e+00 
5.00000000e+00 9.00000000e+00 0.00000000e+00 
6.00000000e+00 9.00000000e+00 0.00000000e+00 

        </DataArray>
      </Points>
      <Cells>
        <DataArray type="Int32" Name="connectivity" format="ascii">
0 1 5 4
4 5 9 8
8 9 13 12
1 2 6 5
5 6 10 9
9 10 14 13
2 3 7 6
6 7 11 10
10 11 15 14

        </DataArray>
        <DataArray type="Int32" Name="offsets" format="ascii">
4 8 12 16 20 24 28 32 36 
        </DataArray>
        <DataArray type="UInt8" Name="types" format="ascii">
9 9 9 9 9 9 9 9 9 
        </DataArray>
      </Cells>
      <PointData>
        <DataArray type="Float64" Name="u">
          0.00000000e+00 -2.70292436e+01 -1.89895316e+00 4.96182122e-01 0.00000000e+00 -2.28777711e+01 -5.06059780e+00 -3.95824950e+00 0.00000000e+00 -1.38960009e+01 -4.57309543e+00 -4.13020207e+00 0.00000000e+00 0.00000000e+00 0.00000000e+00 0.00000000e+00 
        </DataArray>
        <DataArray type="Float64" Name="v">
          0.00000000e+00 -2.16837090e+00 7.30910439e-01 2.72776988e+00 0.00000000e+00 -1.09722446e+00 2.59775329e-01 1.46944126e+00 0.00000000e+00 -3.86208988e-01 7.04866905e-04 5.54950864e-01 0.00000000e+00 0.00000000e+00 0.00000000e+00 0.00000000e+00 
        </DataArray>
        <DataArray type="Float64" Name="p">
          -9.01234990e+02 6.80453208e+02 2.26214141e+03 3.84382960e+03 -9.16395982e+02 6.75425865e+02 2.26724771e+03 3.85906956e+03 -9.31556973e+02 6.70398522e+02 2.27235402e+03 3.87430951e+03 -9.46717965e+02 6.65371179e+02 2.27746032e+03 3.88954947e+03 
        </DataArray>
      </PointData>
    </Piece>
    <Piece NumberOfPoints="16" NumberOfCells="9">
      <Points>
        <DataArray type="Float64" NumberOfComponents="3" format="ascii">
          6.00000000e+00 0.00000000e+00 0.00000000e+00 
7.00000000e+00 0.00000000e+00 0.00000000e+00 
8.00000000e+00 0.00000000e+00 0.00000000e+00 
9.00000000e+00 0.00000000e+00 0.00000000e+00 
6.00000000e+00 3.33333343e-01 0.00000000e+00 
7.00000000e+00 3.33333343e-01 0.00000000e+00 
8.00000000e+00 3.33333343e-01 0.00000000e+00 
9.00000000e+00 3.33333343e-01 0.00000000e+00 
6.00000000e+00 6.66666687e-01 0.00000000e+00 
7.00000000e+00 6.66666687e-01 0.00000000e+00 
8.00000000e+00 6.66666687e-01 0.00000000e+00 
9.00000000e+00 6.66666687e-01 0.00000000e+00 
6.00000000e+00 1.00000000e+00 0.00000000e+00 
7.00000000e+00 1.00000000e+00 0.00000000e+00 
8.00000000e+00 1.00000000e+00 0.00000000e+00 
9.00000000e+00 1.00000000e+00 0.00000000e+00 

        </DataArray>
      </Points>
      <Cells>
        <DataArray type="Int32" Name="connectivity" format="ascii">
0 1 5 4
4 5 9 8
8 9 13 12
1 2 6 5
5 6 10 9
9 10 14 13
2 3 7 6
6 7 11 10
10 11 15 14

        </DataArray>
        <DataArray type="Int32" Name="offsets" format="ascii">
4 8 12 16 20 24 28 32 36 
        </DataArray>
        <DataArray type="UInt8" Name="types" format="ascii">
9 9 9 9 9 9 9 9 9 
        </DataArray>
      </Cells>
      <PointData>
        <DataArray type="Float64" Name="u">
          0.00000000e+00 0.00000000e+00 0.00000000e+00 0.00000000e+00 -4.13020207e+00 5.20289408e+00 1.56580017e+00 1.14257741e+01 -3.95824950e+00 1.16071066e+01 5.32983732e+00 2.07827961e+01 4.96182123e-01 1.92390710e+01 1.10611903e+01 2.86465294e+01 
        </DataArray>
        <DataArray type="Float64" Name="v">