<?xml version="1.0"?>
<VTKFile type="UnstructuredGrid" version="0.1" byte_order="LittleEndian">
  <UnstructuredGrid>
    <Piece NumberOfPoints="16" NumberOfCells="9">
      <Points>
        <DataArray type="Float64" NumberOfComponents="3" format="ascii">
          0.00000000e+00 3.00000000e+00 0.00000000e+00 
1.00000000e+00 3.00000000e+00 0.00000000e+00 
2.00000000e+00 3.00000000e+00 0.00000000e+00 
3.00000000e+00 3.00000000e+00 0.00000000e+00 
0.00000000e+00 3.33333325e+00 0.00000000e+00 
1.00000000e+00 3.33333325e+00 0.00000000e+00 
2.00000000e+00 3.33333325e+00 0.00000000e+00 
3.00000000e+00 3.33333325e+00 0.00000000e+00 
0.00000000e+00 3.66666675e+00 0.00000000e+00 
1.00000000e+00 3.66666675e+00 0.00000000e+00 
2.00000000e+00 3.66666675e+00 0.00000000e+00 
3.00000000e+00 3.66666675e+00 0.00000000e+00 
0.00000000e+00 4.00000000e+00 0.00000000e+00 
1.00000000e+00 4.00000000e+00 0.00000000e+00 
2.00000000e+00 4.00000000e+00 0.00000000e+00 
3.00000000e+00 4.00000000e+00 0.00000000e+00 

        </DataArray>
      </Points>
      <Cells>
        <DataArray type="Int32" Name="connectivity" format="ascii">
0 1 5 4
4 5 9 8
8 9 13 12
1 2 6 5
5 6 10 9
9 10 14 13
2 3 7 6
6 7 11 10
10 11 15 14

        </DataArray>
        <DataArray type="Int32" Name="offsets" format="ascii">
4 8 12 16 20 24 28 32 36 
        </DataArray>
        <DataArray type="UInt8" Name="types" format="ascii">
9 9 9 9 9 9 9 9 9 
        </DataArray>
      </Cells>
      <PointData>
        <DataArray type="Float64" Name="u">
          0.00000000e+00 0.00000000e+00 0.00000000e+00 0.00000000e+00 8.88888889e+01 9.48502523e+01 9.22882193e+01 1.05714413e+02 1.55555556e+02 1.59982779e+02 1.58919493e+02 1.66789168e+02 2.00000000e+02 2.02497150e+02 2.02222578e+02 2.07475606e+02 
        </DataArray>
        <DataArray type="Float64" Name="v">
          0.00000000e+00 0.00000000e+00 0.00000000e+00 0.00000000e+00 0.00000000e+00 -1.69720134e+00 -2.45796195e+00 -4.41046861e+00 0.00000000e+00 -1.11394041e+00 -2.65236410e+00 -4.41316889e+00 0.00000000e+00 -2.89486896e+00 -4.88790855e+00 -7.20267264e+00 
        </DataArray>
        <DataArray type="Float64" Name="p">
          -2.24060692e+03 -2.86780355e+03 -3.49500019e+03 -4.12219682e+03 -2.19490345e+03 -2.81386808e+03 -3.43283272e+03 -4.05179736e+03 -2.14919997e+03 -2.75993261e+03 -3.37066526e+03 -3.98139790e+03 -2.10349649e+03 -2.70599714e+03 -3.30849779e+03 -3.91099844e+03 
        </DataArray>
      </PointData>
    </Piece>
    <Piece NumberOfPoints="16" NumberOfCells="9">
      <Points>
        <DataArray type="Float64" NumberOfComponents="3" format="ascii">
          0.00000000e+00 4.00000000e+00 0.00000000e+00 
1.00000000e+00 4.00000000e+00 0.00000000e+00 
2.00000000e+00 4.00000000e+00 0.00000000e+00 
3.00000000e+00 4.00000000e+00 0.00000000e+00 
0.00000000e+00 4.33333349e+00 0.00000000e+00 
1.00000000e+00 4.33333349e+00 0.00000000e+00 
2.00000000e+00 4.33333349e+00 0.00000000e+00 
3.00000000e+00 4.33333349e+00 0.00000000e+00 
0.00000000e+00 4.66666651e+00 0.00000000e+00 
1.00000000e+00 4.66666651e+00 0.00000000e+00 
2.00000000e+00 4.66666651e+00 0.00000000e+00 
3.00000000e+00 4.66666651e+00 0.00000000e+00 
0.00000000e+00 5.00000000e+00 0.00000000e+00 
1.00000000e+00 5.00000000e+00 0.00000000e+00 
2.00000000e+00 5.00000000e+00 0.00000000e+00 
3.00000000e+00 5.00000000e+00 0.00000000e+00 

        </DataArray>
      </Points>
      <Cells>
        <DataArray type="Int32" Name="connectivity" format="ascii">
0 1 5 4
4 5 9 8
8 9 13 12
1 2 6 5
5 6 10 9
9 10 14 13
2 3 7 6
6 7 11 10
10 11 15 14

        </DataArray>
        <DataArray type="Int32" Name="offsets" format="ascii">
4 8 12 16 20 24 28 32 36 
        </DataArray>
        <DataArray type="UInt8" Name="types" format="ascii">
9 9 9 9 9 9 9 9 9 
        </DataArray>
      </Cells>
      <PointData>
        <DataArray type="Float64" Name="u">
          2.00000000e+02 2.02497150e+02 2.02222578e+02 2.07475606e+02 2.22222222e+02 2.23093281e+02 2.22917590e+02 2.24234246e+02 2.22222222e+02 2.21289643e+02 2.20958241e+02 2.19162660e+02 2.00000000e+02 1.97557507e+02 1.97342309e+02 1.92067728e+02 
        </DataArray>
        <DataArray type="Float64" Name="v">
          0.00000000e+00 -2.89486896e+00 -4.88790855e+00 -7.20267264e+00 0.00000000e+00 -3.30269466e+00 -5.74226254e+00 -7.41976054e+00 0.00000000e+00 -3.31188878e+00 -5.68304589e+00 -7.44190838e+00 0.00000000e+00 -2.75800521e+00 -4.88724907e+00 -6.41548106e+00 
        </DataArray>
        <DataArray type="Float64" Name="p">
          -2.07785771e+03 -2.67764454e+03 -3.27743137e+03 -3.87721820e+03 -1.81341664e+03 -2.46626755e+03 -3.11911847e+03 -3.77196938e+03 -1.54897558e+03 -2.25489057e+03 -2.96080556e+03 -3.66672056e+03 -1.28453451e+03 -2.04351359e+03 -2.80249266e+03 -3.56147173e+03 
        </DataArray>
      </PointData>
    </Piece>
    <Piece NumberOfPoints="16" NumberOfCells="9">
      <Points>
        <DataArray type="Float64" NumberOfComponents="3" format="ascii">
          0.00000000e+00 5.00000000e+00 0.00000000e+00 
1.00000000e+00 5.00000000e+00 0.00000000e+00 
2.00000000e+00 5.00000000e+00 0.00000000e+00 
3.00000000e+00 5.00000000e+00 0.00000000e+00 
0.00000000e+00 5.33333349e+00 0.00000000e+00 
1.00000000e+00 5.33333349e+00 0.00000000e+00 
2.00000000e+00 5.33333349e+00 0.00000000e+00 
3.00000000e+00 5.33333349e+00 0.00000000e+00 
0.00000000e+00 5.66666651e+00 0.00000000e+00 
1.00000000e+00 5.66666651e+00 0.00000000e+00 
2.00000000e+00 5.66666651e+00 0.00000000e+00 
3.00000000e+00 5.66666651e+00 0.00000000e+00 
0.00000000e+00 6.00000000e+00 0.00000000e+00 
1.00000000e+00 6.00000000e+00 0.00000000e+00 
2.00000000e+00 6.00000000e+00 0.00000000e+00 
3.00000000e+00 6.00000000e+00 0.00000000e+00 

        </DataArray>
      </Points>
      <Cells>
        <DataArray type="Int32" Name="connectivity" format="ascii">
0 1 5 4
4 5 9 8
8 9 13 12
1 2 6 5
5 6 10 9
9 10 14 13
2 3 7 6
6 7 11 10
10 11 15 14

        </DataArray>
        <DataArray type="Int32" Name="offsets" format="ascii">
4 8 12 16 20 24 28 32 36 
        </DataArray>
        <DataArray type="UInt8" Name="types" format="ascii">
9 9 9 9 9 9 9 9 9 
        </DataArray>
      </Cells>
      <PointData>
        <DataArray type="Float64" Name="u">
          2.00000000e+02 1.97557507e+02 1.97342309e+02 1.92067728e+02 1.55555556e+02 1.51659404e+02 1.51858276e+02 1.44125442e+02 8.88888889e+01 8.40468743e+01 8.50562525e+01 7.36118490e+01 0.00000000e+00 0.00000000e+00 0.00000000e+00 0.00000000e+00 
        </DataArray>
        <DataArray type="Float64" Name="v">
          0.00000000e+00 -2.75800521e+00 -4.88724907e+00 -6.41548106e+00 0.00000000e+00 -1.10146118e+00 -2.51044829e+00 -4.01526260e+00 0.00000000e+00 -1.48821960e+00 -2.54458671e+00 -2.89404215e+00 0.00000000e+00 0.00000000e+00 0.00000000e+00 0.00000000e+00 
        </DataArray>
        <DataArray type="Float64" Name="p">
          -1.26521795e+03 -2.01382970e+03 -2.76244146e+03 -3.51105321e+03 -1.21262689e+03 -1.96146408e+03 -2.71030126e+03 -3.45913845e+03 -1.16003583e+03 -1.90909845e+03 -2.65816106e+03 -3.40722368e+03 -1.10744476e+03 -1.85673282e+03 -2.60602087e+03 -3.35530892e+03 
        </DataArray>
      </PointData>
    </Piece>
    <Piece NumberOfPoints="16" NumberOfCells="9">
      <Points>
        <DataArray type="Float64" NumberOfComponents="3" format="ascii">
          3.00000000e+00 0.00000000e+00 0.00000000e+00 
4.00000000e+00 0.00000000e+00 0.00000000e+00 
5.00000000e+00 0.00000000e+00 0.00000000e+00 
6.00000000e+00 0.00000000e+00 0.00000000e+00 
3.00000000e+00 3.33333343e-01 0.00000000e+00 
4.00000000e+00 3.33333343e-01 0.00000000e+00 
5.00000000e+00 3.33333343e-01 0.00000000e+00 
6.00000000e+00 3.33333343e-01 0.00000000e+00 
3.00000000e+00 6.66666687e-01 0.00000000e+00 
4.00000000e+00 6.66666687e-01 0.00000000e+00 
5.00000000e+00 6.66666687e-01 0.00000000e+00 
6.00000000e+00 6.66666687e-01 0.00000000e+00 
3.00000000e+00 1.00000000e+00 0.00000000e+00 
4.00000000e+00 1.00000000e+00 0.00000000e+00 
5.00000000e+00 1.00000000e+00 0.00000000e+00 
6.00000000e+00 1.00000000e+00 0.00000000e+00 

        </DataArray>
      </Points>
      <Cells>
        <DataArray type="Int32" Name="connectivity" format="ascii">
0 1 5 4
4 5 9 8
8 9 13 12
1 2 6 5
5 6 10 9
9 10 14 13
2 3 7 6
6 7 11 10
10 11 15 14

        </DataArray>
        <DataArray type="Int32" Name="offsets" format="ascii">
4 8 12 16 20 24 28 32 36 
        </DataArray>
        <DataArray type="UInt8" Name="types" format="ascii">
9 9 9 9 9 9 9 9 9 
        </DataArray>
      </Cells>
      <PointData>
        <DataArray type="Float64" Name="u">
          0.00000000e+00 0.00000000e+00 0.00000000e+00 0.00000000e+00 0.00000000e+00 -2.40230951e+00 -4.71557575e+00 -7.41526662e+00 0.00000000e+00 -4.49222416e+00 -8.77422993e+00 -1.47249306e+01 0.00000000e+00 -6.01935405e+00 -1.15575227e+01 -1.89132181e+01 
        </DataArray>
        <DataArray type="Float64" Name="v">
          0.00000000e+00 0.00000000e+00 0.00000000e+00 0.00000000e+00 0.00000000e+00 6.53711395e-01 5.23140945e-01 3.79201863e-01 0.00000000e+00 1.97570119e+00 1.73994938e+00 1.37585337e+00 0.00000000e+00 4.38315784e+00 4.18941406e+00 2.72688760e+00 
        </DataArray>
        <DataArray type="Float64" Name="p">
          -4.79859062e+03 -4.79152954e+03 -4.78446847e+03 -4.77740739e+03 -4.79539101e+03 -4.78678201e+03 -4.77817302e+03 -4.76956402e+03 -4.79219140e+03 -4.78203449e+03 -4.77187757e+03 -4.76172066e+03 -4.78899180e+03 -4.77728696e+03 -4.76558213e+03 -4.75387729e+03 
        </DataArray>
      </PointData>
    </Piece>
    <Piece NumberOfPoints="16" NumberOfCells="9">
      <Points>
        <DataArray type="Float64" NumberOfComponents="3" format="ascii">
          3.00000000e+00 1.00000000e+00 0.00000000e+00 
4.00000000e+00 1.00000000e+00 0.00000000e+00 
5.00000000e+00 1.00000000e+00 0.00000000e+00 
6.00000000e+00 1.00000000e+00 0.00000000e+00 
3.00000000e+00 1.33333337e+00 0.00000000e+00 
4.00000000e+00 1.33333337e+00 0.00000000e+00 
5.00000000e+00 1.33333337e+00 0.00000000e+00 
6.00000000e+00 1.33333337e+00 0.00000000e+00 
3.00000000e+00 1.66666663e+00 0.00000000e+00 
4.00000000e+00 1.66666663e+00 0.00000000e+00 
5.00000000e+00 1.66666663e+00 0.00000000e+00 
6.00000000e+00 1.66666663e+00 0.00000000e+00 
3.00000000e+00 2.00000000e+00 0.00000000e+00 
4.00000000e+00 2.00000000e+00 0.00000000e+00 
5.00000000e+00 2.00000000e+00 0.00000000e+00 
6.00000000e+00 2.00000000e+00 0.00000000e+00 

        </DataArray>
      </Points>
      <Cells>
        <DataArray type="Int32" Name="connectivity" format="ascii">
0 1 5 4
4 5 9 8
8 9 13 12
1 2 6 5
5 6 10 9
9 10 14 13
2 3 7 6
6 7 11 10
10 11 15 14

        </DataArray>
        <DataArray type="Int32" Name="offsets" format="ascii">
4 8 12 16 20 24 28 32 36 
        </DataArray>
        <DataArray type="UInt8" Name="types" format="ascii">
9 9 9 9 9 9 9 9 9 
        </DataArray>
      </Cells>
      <PointData>
        <DataArray type="Float64" Name="u">
          0.00000000e+00 -6.01935405e+00 -1.15575227e+01 -1.89132181e+01 0.00000000e+00 -6.79608789e+00 -1.22239598e+01 -1.85360620e+01 0.00000000e+00 -6.66227814e+00 -1.01139633e+01 -1.30146831e+01 0.00000000e+00 -5.21071250e+00 -4.40678554e+00 -1.45786170e+00 
        </DataArray>
        <DataArray type="Float64" Name="v">
          0.00000000e+00 4.38315784e+00 4.18941406e+00 2.72688760e+00 0.00000000e+00 7.38563683e+00 6.65991963e+00 4.39509743e+00 0.00000000e+00 9.75603255e+00 8.29103184e+00 4.66360788e+00 0.00000000e+00 1.21553729e+01 8.98424406e+00 3.36685755e+00 
        </DataArray>
        <DataArray type="Float64" Name="p">
          -4.78341629e+03 -4.77551204e+03 -4.76760780e+03 -4.75970355e+03 -4.80577252e+03 -4.80302812e+03 -4.80028372e+03 -4.79753932e+03 -4.82812875e+03 -4.83054420e+03 -4.83295964e+03 -4.83537508e+03 -4.85048499e+03 -4.85806027e+03 -4.86563556e+03 -4.87321085e+03 
        </DataArray>
      </PointData>
    </Piece>
    <Piece NumberOfPoints="16" NumberOfCells="9">
      <Points>
        <DataArray type="Float64" NumberOfComponents="3" format="ascii">
          3.00000000e+00 2.00000000e+00 0.00000000e+00 
4.00000000e+00 2.00000000e+00 0.00000000e+00 
5.00000000e+00 2.00000000e+00 0.00000000e+00 
6.00000000e+00 2.00000000e+00 0.00000000e+00 
3.00000000e+00 2.33333325e+00 0.00000000e+00 
4.00000000e+00 2.33333325e+00 0.00000000e+00 
5.00000000e+00 2.33333325e+00 0.00000000e+00 
6.00000000e+00 2.33333325e+00 0.00000000e+00 
3.00000000e+00 2.66666675e+00 0.00000000e+00 
4.00000000e+00 2.66666675e+00 0.00000000e+00 
5.00000000e+00 2.66666675e+00 0.00000000e+00 
6.00000000e+00 2.66666675e+00 0.00000000e+00 
3.00000000e+00 3.00000000e+00 0.00000000e+00 
4.00000000e+00 3.00000000e+00 0.00000000e+00 
5.00000000e+00 3.00000000e+00 0.00000000e+00 
6.00000000e+00 3.00000000e+00 0.00000000e+00 

        </DataArray>
      </Points>
      <Cells>
        <DataArray type="Int32" Name="connectivity" format="ascii">
0 1 5 4
4 5 9 8
8 9 13 12
1 2 6 5
5 6 10 9
9 10 14 13
2 3 7 6
6 7 11 10
10 11 15 14

        </DataArray>
        <DataArray type="Int32" Name="offsets" format="ascii">
4 8 12 16 20 24 28 32 36 
        </DataArray>
        <DataArray type="UInt8" Name="types" format="ascii">
9 9 9 9 9 9 9 9 9 
        </DataArray>
      </Cells>
      <PointData>
        <DataArray type="Float64" Name="u">
          0.00000000e+00 -5.21071250e+00 -4.40678554e+00 -1.45786170e+00 0.00000000e+00 -1.20392654e+00 5.46549536e+00 1.94467110e+01 0.00000000e+00 1.19023466e+01 2.60350790e+01 5.04591479e+01 0.00000000e+00 5.41713108e+01 7.10684595e+01 9.74177380e+01 
        </DataArray>
        <DataArray type="Float64" Name="v">
          0.00000000e+00 1.21553729e+01 8.98424406e+00 3.36685755e+00 0.00000000e+00 1.32909939e+01 6.00752029e+00 -2.14468169e+00 0.00000000e+00 1.02639074e+01 2.92795542e+00 -6.61144597e+00 0.00000000e+00 -1.00025682e+00 -6.60097371e+00 -1.23030845e+01 
        </DataArray>
        <DataArray type="Float64" Name="p">
          -4.82872447e+03 -4.86652691e+03 -4.90432935e+03 -4.94213179e+03 -4.94189751e+03 -4.90876648e+03 -4.87563545e+03 -4.84250442e+03 -5.05507055e+03 -4.95100605e+03 -4.84694155e+03 -4.74287706e+03 -5.16824359e+03 -4.99324563e+03 -4.81824766e+03 -4.64324969e+03 
        </DataArray>
      </PointData>
    </Piece>
    <Piece NumberOfPoints="16" NumberOfCells="9">
      <Points>
        <DataArray type="Float64" NumberOfComponents="3" format="ascii">
          3.00000000e+00 3.00000000e+00 0.00000000e+00 
4.00000000e+00 3.00000000e+00 0.00000000e+00 
5.00000000e+00 3.00000000e+00 0.00000000e+00 
6.00000000e+00 3.00000000e+00 0.00000000e+00 
3.00000000e+00 3.33333325e+00 0.00000000e+00 
4.00000000e+00 3.33333325e+00 0.00000000e+00 
5.00000000e+00 3.33333325e+00 0.00000000e+00 
6.00000000e+00 3.33333325e+00 0.00000000e+00 
3.00000000e+00 3.66666675e+00 0.00000000e+00 
4.00000000e+00 3.66666675e+00 0.00000000e+00 
5.00000000e+00 3.66666675e+00 0.00000000e+00 
6.00000000e+00 3.66666675e+00 0.00000000e+00 
3.00000000e+00 4.00000000e+00 0.00000000e+00 
4.00000000e+00 4.00000000e+00 0.00000000e+00 
5.00000000e+00 4.00000000e+00 0.00000000e+00 
6.00000000e+00 4.00000000e+00 0.00000000e+00 

        </DataArray>
      </Points>
      <Cells>
        <DataArray type="Int32" Name="connectivity" format="ascii">
0 1 5 4
4 5 9 8
8 9 13 12
1 2 6 5
5 6 10 9
9 10 14 13
2 3 7 6
6 7 11 10
10 11 15 14

        </DataArray>
        <DataArray type="Int32" Name="offsets" format="ascii">
4 8 12 16 20 24 28 32 36 
        </DataArray>
        <DataArray type="UInt8" Name="types" format="ascii">
9 9 9 9 9 9 9 9 9 
        </DataArray>
      </Cells>
      <PointData>
        <DataArray type="Float64" Name="u">
          0.00000000e+00 5.41713108e+01 7.10684595e+01 9.74177380e+01 1.05714413e+02 1.15058722e+02 1.30276744e+02 1.45501981e+02 1.66789168e+02 1.70159189e+02 1.78245232e+02 1.85523123e+02 2.07475606e+02 2.05424556e+02 2.09777598e+02 2.09607499e+02 
        </DataArray>
        <DataArray type="Float64" Name="v">
          0.00000000e+00 -1.00025682e+00 -6.60097371e+00 -1.23030845e+01 -4.41046861e+00 -1.23557271e+01 -1.56473003e+01 -1.69050329e+01 -4.41316889e+00 -1.14806833e+01 -1.58339680e+01 -1.81355965e+01 -7.20267264e+00 -1.37697374e+01 -1.84808922e+01 -2.28569476e+01 
        </DataArray>
        <DataArray type="Float64" Name="p">
          -5.30717441e+03 -5.07650773e+03 -4.84584104e+03 -4.61517436e+03 -4.88746941e+03 -4.78882463e+03 -4.69017984e+03 -4.59153506e+03 -4.46776442e+03 -4.50114153e+03 -4.53451864e+03 -4.56789575e+03 -4.04805943e+03 -4.21345843e+03 -4.37885744e+03 -4.54425645e+03 
        </DataArray>
      </PointData>
    </Piece>
    <Piece NumberOfPoints="16" NumberOfCells="9">
      <Points>
        <DataArray type="Float64" NumberOfComponents="3" format="ascii">
          3.00000000e+00 4.00000000e+00 0.00000000e+00 
4.00000000e+00 4.00000000e+00 0.00000000e+00 
5.00000000e+00 4.00000000e+00 0.00000000e+00 
6.00000000e+00 4.00000000e+00 0.00000000e+00 
3.00000000e+00 4.33333349e+00 0.00000000e+00 
4.00000000e+00 4.33333349e+00 0.00000000e+00 
5.00000000e+00 4.33333349e+00 0.00000000e+00 
6.00000000e+00 4.33333349e+00 0.00000000e+00 
3.00000000e+00 4.66666651e+00 0.00000000e+00 
4.00000000e+00 4.66666651e+00 0.00000000e+00 
5.00000000e+00 4.66666651e+00 0.00000000e+00 
6.00000000e+00 4.66666651e+00 0.00000000e+00 
3.00000000e+00 5.00000000e+00 0.00000000e+00 
4.00000000e+00 5.00000000e+00 0.00000000e+00 
5.00000000e+00 5.00000000e+00 0.00000000e+00 
6.00000000e+00 5.00000000e+00 0.00000000e+00 

        </DataArray>
      </Points>
      <Cells>
        <DataArray type="Int32" Name="connectivity" format="ascii">
0 1 5 4
4 5 9 8
8 9 13 12
1 2 6 5
5 6 10 9
9 10 14 13
2 3 7 6
6 7 11 10
10 11 15 14

        </DataArray>
        <DataArray type="Int32" Name="offsets" format="ascii">
4 8 12 16 20 24 28 32 36 
        </DataArray>
        <DataArray type="UInt8" Name="types" format="ascii">
9 9 9 9 9 9 9 9 9 
        </DataArray>
      </Cells>
      <PointData>
        <DataArray type="Float64" Name="u">
          2.07475606e+02 2.05424556e+02 2.09777598e+02 2.09607499e+02 2.24234246e+02 2.20485167e+02 2.19080500e+02 2.13388583e+02 2.19162660e+02 2.12258975e+02 2.06952514e+02 1.95733200e+02 1.92067728e+02 1.83729371e+02 1.75487283e+02 1.60884159e+02 
        </DataArray>
        <DataArray type="Float64" Name="v">
          -7.20267264e+00 -1.37697374e+01 -1.84808922e+01 -2.28569476e+01 -7.41976054e+00 -1.20578955e+01 -1.72593958e+01 -2.22949910e+01 -7.44190838e+00 -1.20338728e+01 -1.62153806e+01 -2.07331194e+01 -6.41548106e+00 -8.10239975e+00 -1.19236234e+01 -1.63589439e+01 
        </DataArray>
        <DataArray type="Float64" Name="p">
          -3.96185201e+03 -4.13135213e+03 -4.30085224e+03 -4.47035236e+03 -3.62585810e+03 -3.77716344e+03 -3.92846879e+03 -4.07977413e+03 -3.28986420e+03 -3.42297476e+03 -3.55608533e+03 -3.68919590e+03 -2.95387029e+03 -3.06878608e+03 -3.18370188e+03 -3.29861767e+03 
        </DataArray>
      </PointData>
    </Piece>
    <Piece NumberOfPoints="16" NumberOfCells="9">
      <Points>
        <DataArray type="Float64" NumberOfComponents="3" format="ascii">
          3.00000000e+00 5.00000000e+00 0.00000000e+00 
4.00000000e+00 5.00000000e+00 0.00000000e+00 
5.00000000e+00 5.00000000e+00 0.00000000e+00 
6.00000000e+00 5.00000000e+00 0.00000000e+00 
3.00000000e+00 5.33333349e+00 0.00000000e+00 
4.00000000e+00 5.33333349e+00 0.00000000e+00 
5.00000000e+00 5.33333349e+00 0.00000000e+00 
6.00000000e+00 5.33333349e+00 0.00000000e+00 
3.00000000e+00 5.66666651e+00 0.00000000e+00 
4.00000000e+00 5.66666651e+00 0.00000000e+00 
5.00000000e+00 5.66666651e+00 0.00000000e+00 
6.00000000e+00 5.66666651e+00 0.00000000e+00 
3.00000000e+00 6.00000000e+00 0.00000000e+00 
4.00000000e+00 6.00000000e+00 0.00000000e+00 
5.00000000e+00 6.00000000e+00 0.00000000e+00 
6.00000000e+00 6.00000000e+00 0.00000000e+00 

        </DataArray>
      </Points>
      <Cells>
        <DataArray type="Int32" Name="connectivity" format="ascii">
0 1 5 4
4 5 9 8
8 9 13 12
1 2 6 5
5 6 10 9
9 10 14 13
2 3 7 6
6 7 11 10
10 11 15 14

        </DataArray>
        <DataArray type="Int32" Name="offsets" format="ascii">
4 8 12 16 20 24 28 32 36 
        </DataArray>
        <DataArray type="UInt8" Name="types" format="ascii">
9 9 9 9 9 9 9 9 9 
        </DataArray>
      </Cells>
      <PointData>
        <DataArray type="Float64" Name="u">
          1.92067728e+02 1.83729371e+02 1.75487283e+02 1.60884159e+02 1.44125442e+02 1.34225888e+02 1.25245937e+02 1.10939189e+02 7.36118490e+01 7.27962404e+01 6.76807972e+01 6.11122605e+01 0.00000000e+00 2.76435191e+01 2.58799149e+01 3.12879292e+01 
        </DataArray>
        <DataArray type="Float64" Name="v">
          -6.41548106e+00 -8.10239975e+00 -1.19236234e+01 -1.63589439e+01 -4.01526260e+00 -3.48820302e+00 -5.69086284e+00 -1.00726477e+01 -2.89404215e+00 -3.42143506e+00 -6.54245206e+00 -8.73270881e+00 0.00000000e+00 -6.47955423e+00 -4.84480644e+00 -3.22835687e+00 
        </DataArray>
        <DataArray type="Float64" Name="p">
          -2.98400183e+03 -3.04237965e+03 -3.10075747e+03 -3.15913529e+03 -3.04243580e+03 -3.02884858e+03 -3.01526136e+03 -3.00167414e+03 -3.10086977e+03 -3.01531751e+03 -2.92976525e+03 -2.84421299e+03 -3.15930373e+03 -3.00178643e+03 -2.84426914e+03 -2.68675184e+03 
        </DataArray>
      </PointData>
    </Piece>
    <Piece NumberOfPoints="16" NumberOfCells="9">
      <Points>
        <DataArray type="Float64" NumberOfComponents="3" format="ascii">
          3.00000000e+00 6.00000000e+00 0.00000000e+00 
4.00000000e+00 6.00000000e+00 0.00000000e+00 
5.00000000e+00 6.00000000e+00 0.00000000e+00 
6.00000000e+00 6.00000000e+00 0.00000000e+00 
3.00000000e+00 6.33333349e+00 0.00000000e+00 
4.00000000e+00 6.33333349e+00 0.00000000e+00 
5.00000000e+00 6.33333349e+00 0.00000000e+00 
6.00000000e+00 6.33333349e+00 0.00000000e+00 
3.00000000e+00 6.66666651e+00 0.00000000e+00 
4.00000000e+00 6.66666651e+00 0.00000000e+00 
5.00000000e+00 6.66666651e+00 0.00000000e+00 
6.00000000e+00 6.66666651e+00 0.00000000e+00 
3.00000000e+00 7.00000000e+00 0.00000000e+00 
4.00000000e+00 7.00000000e+00 0.00000000e+00 
5.00000000e+00 7.00000000e+00 0.00000000e+00 
6.00000000e+00 7.00000000e+00 0.00000000e+00 

        </DataArray>
      </Points>
      <Cells>
        <DataArray type="Int32" Name="connectivity" format="ascii">
0 1 5 4
4 5 9 8
8 9 13 12
1 2 6 5
5 6 10 9
9 10 14 13
2 3 7 6
6 7 11 10
10 11 15 14

        </DataArray>
        <DataArray type="Int32" Name="offsets" format="ascii">
4 8 12 16 20 24 28 32 36 
        </DataArray>
        <DataArray type="UInt8" Name="types" format="ascii">
9 9 9 9 9 9 9 9 9 
        </DataArray>
      </Cells>
      <PointData>
        <DataArray type="Float64" Name="u">
          0.00000000e+00 2.76435191e+01 2.58799149e+01 3.12879292e+01 0.00000000e+00 3.98090176e+00 5.65140560e+00 9.93561388e+00 0.00000000e+00 -3.14905788e+00 -3.30779748e+00 -2.78676495e+00 0.00000000e+00 -5.25393313e+00 -7.39702300e+00 -1.00184058e+01 
        </DataArray>
        <DataArray type="Float64" Name="v">
          0.00000000e+00 -6.47955423e+00 -4.84480644e+00 -3.22835687e+00 0.00000000e+00 -1.08661896e+01 -6.80864291e+00 -2.91444289e+00 0.00000000e+00 -1.11800954e+01 -6.50381658e+00 -3.29160003e+00 0.00000000e+00 -9.40535453e+00 -6.49279583e+00 -3.74567786e+00 
        </DataArray>
        <DataArray type="Float64" Name="p">
          -3.14662009e+03 -3.04149088e+03 -2.93636168e+03 -2.83123248e+03 -3.07236739e+03 -3.00123912e+03 -2.93011086e+03 -2.85898260e+03 -2.99811469e+03 -2.96098736e+03 -2.92386004e+03 -2.88673271e+03 -2.92386199e+03 -2.92073560e+03 -2.91760921e+03 -2.91448282e+03 
        </DataArray>
      </PointData>
    </Piece>
    <Piece NumberOfPoints="16" NumberOfCells="9">
      <Points>
        <DataArray type="Float64" NumberOfComponents="3" format="ascii">
          3.00000000e+00 7.00000000e+00 0.00000000e+00 
4.00000000e+00 7.00000000e+00 0.00000000e+00 
5.00000000e+00 7.00000000e+00 0.00000000e+00 
6.00000000e+00 7.00000000e+00 0.00000000e+00 
3.00000000e+00 7.33333349e+00 0.00000000e+00 
4.00000000e+00 7.33333349e+00 0.00000000e+00 
5.00000000e+00 7.33333349e+00 0.00000000e+00 
6.00000000e+00 7.33333349e+00 0.00000000e+00 
3.00000000e+00 7.66666651e+00 0.00000000e+00 
4.00000000e+00 7.66666651e+00 0.00000000e+00 
5.00000000e+00 7.66666651e+00 0.00000000e+00 
6.00000000e+00 7.66666651e+00 0.00000000e+00 
3.00000000e+00 8.00000000e+00 0.00000000e+00 
4.00000000e+00 8.00000000e+00 0.00000000e+00 
5.00000000e+00 8.00000000e+00 0.00000000e+00 
6.00000000e+00 8.00000000e+00 0.00000000e+00 

        </DataArray>
      </Points>
      <Cells>
        <DataArray type="Int32" Name="connectivity" format="ascii">
0 1 5 4
4 5 9 8
8 9 13 12
1 2 6 5
5 6 10 9
9 10 14 13
2 3 7 6
6 7 11 10
10 11 15 14

        </DataArray>
        <DataArray type="Int32" Name="offsets" format="ascii">
4 8 12 16 20 24 28 32 36 
        </DataArray>
        <DataArray type="UInt8" Name="types" format="ascii">
9 9 9 9 9 9 9 9 9 
        </DataArray>
      </Cells>
      <PointData>
        <DataArray type="Float64" Name="u">
          0.00000000e+00 -5.25393313e+00 -7.39702300e+00 -1.00184058e+01 0.00000000e+00 -5.65488155e+00 -9.09472547e+00 -1.29575142e+01 0.00000000e+00 -5.22639704e+00 -9.02980848e+00 -1.33293902e+01 0.00000000e+00 -4.33314751e+00 -7.76220067e+00 -1.18276288e+01 
        </DataArray>
        <DataArray type="Float64" Name="v">
          0.00000000e+00 -9.40535453e+00 -6.49279583e+00 -3.74567786e+00 0.00000000e+00 -7.06755692e+00 -5.22375304e+00 -3.27349282e+00 0.00000000e+00 -5.16326232e+00 -3.99049698e+00 -2.58981474e+00 0.00000000e+00 -2.96487297e+00 -2.44397760e+00 -1.64466124e+00 
        </DataArray>
        <DataArray type="Float64" Name="p">
          -2.92893625e+03 -2.91527123e+03 -2.90160622e+03 -2.88794120e+03 -2.90920038e+03 -2.89821862e+03 -2.88723685e+03 -2.87625508e+03 -2.88946452e+03 -2.88116600e+03 -2.87286748e+03 -2.86456895e+03 -2.86972866e+03 -2.86411338e+03 -2.85849811e+03 -2.85288283e+03 
        </DataArray>
      </PointData>
    </Piece>
    <Piece NumberOfPoints="16" NumberOfCells="9">
      <Points>
        <DataArray type="Float64" NumberOfComponents="3" format="ascii">
          3.00000000e+00 8.00000000e+00 0.00000000e+00 
4.00000000e+00 8.00000000e+00 0.00000000e+00 
5.00000000e+00 8.00000000e+00 0.00000000e+00 
6.00000000e+00 8.00000000e+00 0.00000000e+00 
3.00000000e+00 8.33333302e+00 0.00000000e+00 
4.00000000e+00 8.33333302e+00 0.00000000e+00 
5.00000000e+00 8.33333302e+00 0.00000000e+00 
6.00000000e+00 8.33333302e+00 0.00000000e+00 
3.00000000e+00 8.66666698e+00 0.00000000e+00 
4.00000000e+00 8.66666698e+00 0.00000000e+00 
5.00000000e+00 8.66666698e+00 0.00000000e+00 
6.00000000e+00 8.66666698e+00 0.00000000e+00 
3.00000000e+00 9.00000000e+00 0.00000000e+00 
4.00000000e+00 9.00000000e+00 0.00000000e+00 
5.00000000e+00 9.00000000e+00 0.00000000e+00 
6.00000000e+00 9.00000000e+00 0.00000000e+00 

        </DataArray>
      </Points>
      <Cells>
        <DataArray type="Int32" Name="connectivity" format="ascii">
0 1 5 4
4 5 9 8
8 9 13 12
1 2 6 5
5 6 10 9
9 10 14 13
2 3 7 6
6 7 11 10
10 11 15 14

        </DataArray>
        <DataArray type="Int32" Name="offsets" format="ascii">
4 8 12 16 20 24 28 32 36 
        </DataArray>
        <DataArray type="UInt8" Name="types" format="ascii">
9 9 9 9 9 9 9 9 9 
        </DataArray>
      </Cells>
      <PointData>
        <DataArray type="Float64" Name="u">
          0.00000000e+00 -4.33314751e+00 -7.76220067e+00 -1.18276288e+01 0.00000000e+00 -3.13970072e+00 -5.66099496e+00 -8.97099016e+00 0.00000000e+00 -1.68933247e+00 -2.99143775e+00 -4.95767985e+00 0.00000000e+00 0.00000000e+00 0.00000000e+00 0.00000000e+00 
        </DataArray>
        <DataArray type="Float64" Name="v">
          0.00000000e+00 -2.96487297e+00 -2.44397760e+00 -1.64466124e+00 0.00000000e+00 -1.31379363e+00 -1.14895782e+00 -7.52798791e-01 0.00000000e+00 -4.13712619e-01 -3.91596221e-01 -2.48654164e-01 0.00000000e+00 0.00000000e+00 0.00000000e+00 0.00000000e+00 
        </DataArray>
        <DataArray type="Float64" Name="p">
          -2.87397066e+03 -2.86700539e+03 -2.86004012e+03 -2.85307485e+03 -2.87787658e+03 -2.87063042e+03 -2.86338425e+03 -2.85613809e+03 -2.88178251e+03 -2.87425544e+03 -2.86672838e+03 -2.85920132e+03 -2.88568843e+03 -2.87788047e+03 -2.87007251e+03 -2.86226455e+03 
        </DataArray>
      </PointData>
    </Piece>
    <Piece NumberOfPoints="16" NumberOfCells="9">
      <Points>
        <DataArray type="Float64" NumberOfComponents="3" format="ascii">
          6.00000000e+00 0.00000000e+00 0.00000000e+00 
7.00000000e+00 0.00000000e+00 0.00000000e+00 
8.00000000e+00 0.00000000e+00 0.00000000e+00 
9.00000000e+00 0.00000000e+00 0.00000000e+00 
6.00000000e+00 3.33333343e-01 0.00000000e+00 
7.00000000e+00 3.33333343e-01 0.00000000e+00 
8.00000000e+00 3.33333343e-01 0.00000000e+00 
9.00000000e+00 3.33333343e-01 0.00000000e+00 
6.00000000e+00 6.66666687e-01 0.00000000e+00 
7.00000000e+00 6.66666687e-01 0.00000000e+00 
8.00000000e+00 6.66666687e-01 0.00000000e+00 
9.00000000e+00 6.66666687e-01 0.00000000e+00 
6.00000000e+00 1.00000000e+00 0.00000000e+00 
7.00000000e+00 1.00000000e+00 0.00000000e+00 
8.00000000e+00 1.00000000e+00 0.00000000e+00 
9.00000000e+00 1.00000000e+00 0.00000000e+00 

        </DataArray>
      </Points>
      <Cells>
        <DataArray type="Int32" Name="connectivity" format="ascii">
0 1 5 4
4 5 9 8
8 9 13 12
1 2 6 5
5 6 10 9
9 10 14 13
2 3 7 6
6 7 11 10
10 11 15 14

        </DataArray>
        <DataArray type="Int32" Name="offsets" format="ascii">
4 8 12 16 20 24 28 32 36 
        </DataArray>
        <DataArray type="UInt8" Name="types" format="ascii">
9 9 9 9 9 9 9 9 9 
        </DataArray>
      </Cells>
      <PointData>
        <DataArray type="Float64" Name="u">