<?xml version="1.0"?>
<VTKFile type="UnstructuredGrid" version="0.1" byte_order="LittleEndian">
  <UnstructuredGrid>
    <Piece NumberOfPoints="16" NumberOfCells="9">
      <Points>
        <DataArray type="Float64" NumberOfComponents="3" format="ascii">
          0.00000000e+00 3.00000000e+00 0.00000000e+00 
1.00000000e+00 3.00000000e+00 0.00000000e+00 
2.00000000e+00 3.00000000e+00 0.00000000e+00 
3.00000000e+00 3.00000000e+00 0.00000000e+00 
0.00000000e+00 3.33333325e+00 0.00000000e+00 
1.00000000e+00 3.33333325e+00 0.00000000e+00 
2.00000000e+00 3.33333325e+00 0.00000000e+00 
3.00000000e+00 3.33333325e+00 0.00000000e+00 
0.00000000e+00 3.66666675e+00 0.00000000e+00 
1.00000000e+00 3.66666675e+00 0.00000000e+00 
2.00000000e+00 3.66666675e+00 0.00000000e+00 
3.00000000e+00 3.66666675e+00 0.00000000e+00 
0.00000000e+00 4.00000000e+00 0.00000000e+00 
1.00000000e+00 4.00000000e+00 0.00000000e+00 
2.00000000e+00 4.00000000e+00 0.00000000e+00 
3.00000000e+00 4.00000000e+00 0.00000000e+00 

        </DataArray>
      </Points>
      <Cells>
        <DataArray type="Int32" Name="connectivity" format="ascii">
0 1 5 4
4 5 9 8
8 9 13 12
1 2 6 5
5 6 10 9
9 10 14 13
2 3 7 6
6 7 11 10
10 11 15 14

        </DataArray>
        <DataArray type="Int32" Name="offsets" format="ascii">
4 8 12 16 20 24 28 32 36 
        </DataArray>
        <DataArray type="UInt8" Name="types" format="ascii">
9 9 9 9 9 9 9 9 9 
        </DataArray>
      </Cells>
      <PointData>
        <DataArray type="Float64" Name="u">
          0.00000000e+00 0.00000000e+00 0.00000000e+00 0.00000000e+00 8.88888889e+01 9.19666514e+01 9.08300789e+01 9.93638780e+01 1.55555556e+02 1.58317802e+02 1.58081004e+02 1.63732567e+02 2.00000000e+02 2.01425517e+02 2.01967031e+02 2.04841458e+02 
        </DataArray>
        <DataArray type="Float64" Name="v">
          0.00000000e+00 0.00000000e+00 0.00000000e+00 0.00000000e+00 0.00000000e+00 -7.84582199e-01 -1.12461494e+00 -3.71322441e+00 0.00000000e+00 -7.37072677e-01 -1.77254490e+00 -3.55657671e+00 0.00000000e+00 -1.74345489e+00 -3.16634727e+00 -5.53641295e+00 
        </DataArray>
        <DataArray type="Float64" Name="p">
          3.32121794e+03 1.85898841e+03 3.96758894e+02 -1.06547063e+03 3.32652117e+03 1.88709429e+03 4.47667404e+02 -9.91759481e+02 3.33182441e+03 1.91520016e+03 4.98575914e+02 -9.18048335e+02 3.33712765e+03 1.94330604e+03 5.49484424e+02 -8.44337189e+02 
        </DataArray>
      </PointData>
    </Piece>
    <Piece NumberOfPoints="16" NumberOfCells="9">
      <Points>
        <DataArray type="Float64" NumberOfComponents="3" format="ascii">
          0.00000000e+00 4.00000000e+00 0.00000000e+00 
1.00000000e+00 4.00000000e+00 0.00000000e+00 
2.00000000e+00 4.00000000e+00 0.00000000e+00 
3.00000000e+00 4.00000000e+00 0.00000000e+00 
0.00000000e+00 4.33333349e+00 0.00000000e+00 
1.00000000e+00 4.33333349e+00 0.00000000e+00 
2.00000000e+00 4.33333349e+00 0.00000000e+00 
3.00000000e+00 4.33333349e+00 0.00000000e+00 
0.00000000e+00 4.66666651e+00 0.00000000e+00 
1.00000000e+00 4.66666651e+00 0.00000000e+00 
2.00000000e+00 4.66666651e+00 0.00000000e+00 
3.00000000e+00 4.66666651e+00 0.00000000e+00 
0.00000000e+00 5.00000000e+00 0.00000000e+00 
1.00000000e+00 5.00000000e+00 0.00000000e+00 
2.00000000e+00 5.00000000e+00 0.00000000e+00 
3.00000000e+00 5.00000000e+00 0.00000000e+00 

        </DataArray>
      </Points>
      <Cells>
        <DataArray type="Int32" Name="connectivity" format="ascii">
0 1 5 4
4 5 9 8
8 9 13 12
1 2 6 5
5 6 10 9
9 10 14 13
2 3 7 6
6 7 11 10
10 11 15 14

        </DataArray>
        <DataArray type="Int32" Name="offsets" format="ascii">
4 8 12 16 20 24 28 32 36 
        </DataArray>
        <DataArray type="UInt8" Name="types" format="ascii">
9 9 9 9 9 9 9 9 9 
        </DataArray>
      </Cells>
      <PointData>
        <DataArray type="Float64" Name="u">
          2.00000000e+02 2.01425517e+02 2.01967031e+02 2.04841458e+02 2.22222222e+02 2.22354333e+02 2.22830594e+02 2.23356655e+02 2.22222222e+02 2.21013879e+02 2.21415309e+02 2.19474093e+02 2.00000000e+02 1.97696193e+02 1.98260232e+02 1.93833208e+02 
        </DataArray>
        <DataArray type="Float64" Name="v">
          0.00000000e+00 -1.74345489e+00 -3.16634727e+00 -5.53641295e+00 0.00000000e+00 -1.96106437e+00 -3.78911014e+00 -5.38921052e+00 0.00000000e+00 -1.98298270e+00 -3.65975635e+00 -5.60213624e+00 0.00000000e+00 -1.47816846e+00 -3.10776326e+00 -4.45254949e+00 
        </DataArray>
        <DataArray type="Float64" Name="p">
          3.36263838e+03 1.97180944e+03 5.80980502e+02 -8.09848436e+02 3.50533879e+03 2.11262745e+03 7.19916112e+02 -6.72795225e+02 3.64803919e+03 2.25344546e+03 8.58851721e+02 -5.35742014e+02 3.79073960e+03 2.39426346e+03 9.97787331e+02 -3.98688802e+02 
        </DataArray>
      </PointData>
    </Piece>
    <Piece NumberOfPoints="16" NumberOfCells="9">
      <Points>
        <DataArray type="Float64" NumberOfComponents="3" format="ascii">
          0.00000000e+00 5.00000000e+00 0.00000000e+00 
1.00000000e+00 5.00000000e+00 0.00000000e+00 
2.00000000e+00 5.00000000e+00 0.00000000e+00 
3.00000000e+00 5.00000000e+00 0.00000000e+00 
0.00000000e+00 5.33333349e+00 0.00000000e+00 
1.00000000e+00 5.33333349e+00 0.00000000e+00 
2.00000000e+00 5.33333349e+00 0.00000000e+00 
3.00000000e+00 5.33333349e+00 0.00000000e+00 
0.00000000e+00 5.66666651e+00 0.00000000e+00 
1.00000000e+00 5.66666651e+00 0.00000000e+00 
2.00000000e+00 5.66666651e+00 0.00000000e+00 
3.00000000e+00 5.66666651e+00 0.00000000e+00 
0.00000000e+00 6.00000000e+00 0.00000000e+00 
1.00000000e+00 6.00000000e+00 0.00000000e+00 
2.00000000e+00 6.00000000e+00 0.00000000e+00 
3.00000000e+00 6.00000000e+00 0.00000000e+00 

        </DataArray>
      </Points>
      <Cells>
        <DataArray type="Int32" Name="connectivity" format="ascii">
0 1 5 4
4 5 9 8
8 9 13 12
1 2 6 5
5 6 10 9
9 10 14 13
2 3 7 6
6 7 11 10
10 11 15 14

        </DataArray>
        <DataArray type="Int32" Name="offsets" format="ascii">
4 8 12 16 20 24 28 32 36 
        </DataArray>
        <DataArray type="UInt8" Name="types" format="ascii">
9 9 9 9 9 9 9 9 9 
        </DataArray>
      </Cells>
      <PointData>
        <DataArray type="Float64" Name="u">
          2.00000000e+02 1.97696193e+02 1.98260232e+02 1.93833208e+02 1.55555556e+02 1.52823428e+02 1.53542828e+02 1.47514969e+02 8.88888889e+01 8.66553709e+01 8.72694070e+01 8.07747278e+01 0.00000000e+00 0.00000000e+00 0.00000000e+00 0.00000000e+00 
        </DataArray>
        <DataArray type="Float64" Name="v">
          0.00000000e+00 -1.47816846e+00 -3.10776326e+00 -4.45254949e+00 0.00000000e+00 -5.87463039e-01 -1.66144189e+00 -2.68608882e+00 0.00000000e+00 -5.23007398e-01 -1.39573953e+00 -1.07024269e+00 0.00000000e+00 0.00000000e+00 0.00000000e+00 0.00000000e+00 
        </DataArray>
        <DataArray type="Float64" Name="p">
          3.79360097e+03 2.41251409e+03 1.03142721e+03 -3.49659661e+02 3.82043139e+03 2.44391077e+03 1.06739014e+03 -3.09130481e+02 3.84726182e+03 2.47530744e+03 1.10335307e+03 -2.68601301e+02 3.87409224e+03 2.50670412e+03 1.13931600e+03 -2.28072122e+02 
        </DataArray>
      </PointData>
    </Piece>
    <Piece NumberOfPoints="16" NumberOfCells="9">
      <Points>
        <DataArray type="Float64" NumberOfComponents="3" format="ascii">
          3.00000000e+00 0.00000000e+00 0.00000000e+00 
4.00000000e+00 0.00000000e+00 0.00000000e+00 
5.00000000e+00 0.00000000e+00 0.00000000e+00 
6.00000000e+00 0.00000000e+00 0.00000000e+00 
3.00000000e+00 3.33333343e-01 0.00000000e+00 
4.00000000e+00 3.33333343e-01 0.00000000e+00 
5.00000000e+00 3.33333343e-01 0.00000000e+00 
6.00000000e+00 3.33333343e-01 0.00000000e+00 
3.00000000e+00 6.66666687e-01 0.00000000e+00 
4.00000000e+00 6.66666687e-01 0.00000000e+00 
5.00000000e+00 6.66666687e-01 0.00000000e+00 
6.00000000e+00 6.66666687e-01 0.00000000e+00 
3.00000000e+00 1.00000000e+00 0.00000000e+00 
4.00000000e+00 1.00000000e+00 0.00000000e+00 
5.00000000e+00 1.00000000e+00 0.00000000e+00 
6.00000000e+00 1.00000000e+00 0.00000000e+00 

        </DataArray>
      </Points>
      <Cells>
        <DataArray type="Int32" Name="connectivity" format="ascii">
0 1 5 4
4 5 9 8
8 9 13 12
1 2 6 5
5 6 10 9
9 10 14 13
2 3 7 6
6 7 11 10
10 11 15 14

        </DataArray>
        <DataArray type="Int32" Name="offsets" format="ascii">
4 8 12 16 20 24 28 32 36 
        </DataArray>
        <DataArray type="UInt8" Name="types" format="ascii">
9 9 9 9 9 9 9 9 9 
        </DataArray>
      </Cells>
      <PointData>
        <DataArray type="Float64" Name="u">
          0.00000000e+00 0.00000000e+00 0.00000000e+00 0.00000000e+00 0.00000000e+00 -4.51559104e+00 -6.86137920e+00 -1.26010657e+01 0.00000000e+00 -7.62541982e+00 -1.19112583e+01 -2.09669121e+01 0.00000000e+00 -9.38632414e+00 -1.44159040e+01 -2.37266891e+01 
        </DataArray>
        <DataArray type="Float64" Name="v">
          0.00000000e+00 0.00000000e+00 0.00000000e+00 0.00000000e+00 0.00000000e+00 1.04467207e+00 1.10270837e+00 7.73820406e-01 0.00000000e+00 3.04012766e+00 2.97628240e+00 1.78586198e+00 0.00000000e+00 6.49242083e+00 6.18707186e+00 3.43839607e+00 
        </DataArray>
        <DataArray type="Float64" Name="p">
          -1.37919821e+03 -1.28568208e+03 -1.19216596e+03 -1.09864983e+03 -1.36367998e+03 -1.27198810e+03 -1.18029621e+03 -1.08860433e+03 -1.34816175e+03 -1.25829411e+03 -1.16842647e+03 -1.07855883e+03 -1.33264352e+03 -1.24460013e+03 -1.15655673e+03 -1.06851333e+03 
        </DataArray>
      </PointData>
    </Piece>
    <Piece NumberOfPoints="16" NumberOfCells="9">
      <Points>
        <DataArray type="Float64" NumberOfComponents="3" format="ascii">
          3.00000000e+00 1.00000000e+00 0.00000000e+00 
4.00000000e+00 1.00000000e+00 0.00000000e+00 
5.00000000e+00 1.00000000e+00 0.00000000e+00 
6.00000000e+00 1.00000000e+00 0.00000000e+00 
3.00000000e+00 1.33333337e+00 0.00000000e+00 
4.00000000e+00 1.33333337e+00 0.00000000e+00 
5.00000000e+00 1.33333337e+00 0.00000000e+00 
6.00000000e+00 1.33333337e+00 0.00000000e+00 
3.00000000e+00 1.66666663e+00 0.00000000e+00 
4.00000000e+00 1.66666663e+00 0.00000000e+00 
5.00000000e+00 1.66666663e+00 0.00000000e+00 
6.00000000e+00 1.66666663e+00 0.00000000e+00 
3.00000000e+00 2.00000000e+00 0.00000000e+00 
4.00000000e+00 2.00000000e+00 0.00000000e+00 
5.00000000e+00 2.00000000e+00 0.00000000e+00 
6.00000000e+00 2.00000000e+00 0.00000000e+00 

        </DataArray>
      </Points>
      <Cells>
        <DataArray type="Int32" Name="connectivity" format="ascii">
0 1 5 4
4 5 9 8
8 9 13 12
1 2 6 5
5 6 10 9
9 10 14 13
2 3 7 6
6 7 11 10
10 11 15 14

        </DataArray>
        <DataArray type="Int32" Name="offsets" format="ascii">
4 8 12 16 20 24 28 32 36 
        </DataArray>
        <DataArray type="UInt8" Name="types" format="ascii">
9 9 9 9 9 9 9 9 9 
        </DataArray>
      </Cells>
      <PointData>
        <DataArray type="Float64" Name="u">
          0.00000000e+00 -9.38632414e+00 -1.44159040e+01 -2.37266891e+01 0.00000000e+00 -9.79083088e+00 -1.37992070e+01 -2.06528984e+01 0.00000000e+00 -8.68458860e+00 -9.76933209e+00 -1.14649320e+01 0.00000000e+00 -5.47566190e+00 -1.80555857e+00 4.12154485e+00 
        </DataArray>
        <DataArray type="Float64" Name="v">
          0.00000000e+00 6.49242083e+00 6.18707186e+00 3.43839607e+00 0.00000000e+00 1.03682946e+01 9.08166611e+00 4.16460277e+00 0.00000000e+00 1.32500378e+01 1.07225070e+01 3.60134198e+00 0.00000000e+00 1.57060739e+01 1.06995817e+01 9.12785819e-01 
        </DataArray>
        <DataArray type="Float64" Name="p">
          -1.32148783e+03 -1.24477227e+03 -1.16805670e+03 -1.09134113e+03 -1.37854869e+03 -1.30908032e+03 -1.23961196e+03 -1.17014359e+03 -1.43560954e+03 -1.37338838e+03 -1.31116722e+03 -1.24894605e+03 -1.49267040e+03 -1.43769644e+03 -1.38272248e+03 -1.32774851e+03 
        </DataArray>
      </PointData>
    </Piece>
    <Piece NumberOfPoints="16" NumberOfCells="9">
      <Points>
        <DataArray type="Float64" NumberOfComponents="3" format="ascii">
          3.00000000e+00 2.00000000e+00 0.00000000e+00 
4.00000000e+00 2.00000000e+00 0.00000000e+00 
5.00000000e+00 2.00000000e+00 0.00000000e+00 
6.00000000e+00 2.00000000e+00 0.00000000e+00 
3.00000000e+00 2.33333325e+00 0.00000000e+00 
4.00000000e+00 2.33333325e+00 0.00000000e+00 
5.00000000e+00 2.33333325e+00 0.00000000e+00 
6.00000000e+00 2.33333325e+00 0.00000000e+00 
3.00000000e+00 2.66666675e+00 0.00000000e+00 
4.00000000e+00 2.66666675e+00 0.00000000e+00 
5.00000000e+00 2.66666675e+00 0.00000000e+00 
6.00000000e+00 2.66666675e+00 0.00000000e+00 
3.00000000e+00 3.00000000e+00 0.00000000e+00 
4.00000000e+00 3.00000000e+00 0.00000000e+00 
5.00000000e+00 3.00000000e+00 0.00000000e+00 
6.00000000e+00 3.00000000e+00 0.00000000e+00 

        </DataArray>
      </Points>
      <Cells>
        <DataArray type="Int32" Name="connectivity" format="ascii">
0 1 5 4
4 5 9 8
8 9 13 12
1 2 6 5
5 6 10 9
9 10 14 13
2 3 7 6
6 7 11 10
10 11 15 14

        </DataArray>
        <DataArray type="Int32" Name="offsets" format="ascii">
4 8 12 16 20 24 28 32 36 
        </DataArray>
        <DataArray type="UInt8" Name="types" format="ascii">
9 9 9 9 9 9 9 9 9 
        </DataArray>
      </Cells>
      <PointData>
        <DataArray type="Float64" Name="u">
          0.00000000e+00 -5.47566190e+00 -1.80555857e+00 4.12154485e+00 0.00000000e+00 1.31875237e+00 1.07500694e+01 2.74941392e+01 0.00000000e+00 1.81248050e+01 3.30852949e+01 5.75980709e+01 0.00000000e+00 5.77967252e+01 7.13633016e+01 9.67942218e+01 
        </DataArray>
        <DataArray type="Float64" Name="v">
          0.00000000e+00 1.57060739e+01 1.06995817e+01 9.12785819e-01 0.00000000e+00 1.62285284e+01 6.83593653e+00 -4.83600020e+00 0.00000000e+00 1.14298783e+01 2.05622073e+00 -8.99941189e+00 0.00000000e+00 -1.49597271e+00 -7.15506729e+00 -1.26479263e+01 
        </DataArray>
        <DataArray type="Float64" Name="p">
          -1.45160193e+03 -1.44760058e+03 -1.44359923e+03 -1.43959787e+03 -1.71028050e+03 -1.55574138e+03 -1.40120226e+03 -1.24666314e+03 -1.96895908e+03 -1.66388219e+03 -1.35880530e+03 -1.05372841e+03 -2.22763765e+03 -1.77202299e+03 -1.31640834e+03 -8.60793677e+02 
        </DataArray>
      </PointData>
    </Piece>
    <Piece NumberOfPoints="16" NumberOfCells="9">
      <Points>
        <DataArray type="Float64" NumberOfComponents="3" format="ascii">
          3.00000000e+00 3.00000000e+00 0.00000000e+00 
4.00000000e+00 3.00000000e+00 0.00000000e+00 
5.00000000e+00 3.00000000e+00 0.00000000e+00 
6.00000000e+00 3.00000000e+00 0.00000000e+00 
3.00000000e+00 3.33333325e+00 0.00000000e+00 
4.00000000e+00 3.33333325e+00 0.00000000e+00 
5.00000000e+00 3.33333325e+00 0.00000000e+00 
6.00000000e+00 3.33333325e+00 0.00000000e+00 
3.00000000e+00 3.66666675e+00 0.00000000e+00 
4.00000000e+00 3.66666675e+00 0.00000000e+00 
5.00000000e+00 3.66666675e+00 0.00000000e+00 
6.00000000e+00 3.66666675e+00 0.00000000e+00 
3.00000000e+00 4.00000000e+00 0.00000000e+00 
4.00000000e+00 4.00000000e+00 0.00000000e+00 
5.00000000e+00 4.00000000e+00 0.00000000e+00 
6.00000000e+00 4.00000000e+00 0.00000000e+00 

        </DataArray>
      </Points>
      <Cells>
        <DataArray type="Int32" Name="connectivity" format="ascii">
0 1 5 4
4 5 9 8
8 9 13 12
1 2 6 5
5 6 10 9
9 10 14 13
2 3 7 6
6 7 11 10
10 11 15 14

        </DataArray>
        <DataArray type="Int32" Name="offsets" format="ascii">
4 8 12 16 20 24 28 32 36 
        </DataArray>
        <DataArray type="UInt8" Name="types" format="ascii">
9 9 9 9 9 9 9 9 9 
        </DataArray>
      </Cells>
      <PointData>
        <DataArray type="Float64" Name="u">
          0.00000000e+00 5.77967252e+01 7.13633016e+01 9.67942218e+01 9.93638780e+01 1.09580546e+02 1.22841106e+02 1.35435159e+02 1.63732567e+02 1.62907037e+02 1.69401100e+02 1.72504192e+02 2.04841458e+02 1.99023971e+02 2.01427288e+02 1.96183113e+02 
        </DataArray>
        <DataArray type="Float64" Name="v">
          0.00000000e+00 -1.49597271e+00 -7.15506729e+00 -1.26479263e+01 -3.71322441e+00 -1.25579322e+01 -1.44907582e+01 -1.44029928e+01 -3.55657671e+00 -1.30709571e+01 -1.64203260e+01 -1.63403607e+01 -5.53641295e+00 -1.29425043e+01 -1.65089233e+01 -1.89318832e+01 
        </DataArray>
        <DataArray type="Float64" Name="p">
          -2.36932554e+03 -1.82462859e+03 -1.27993164e+03 -7.35234688e+02 -1.78101762e+03 -1.47559522e+03 -1.17017283e+03 -8.64750430e+02 -1.19270969e+03 -1.12656185e+03 -1.06041401e+03 -9.94266173e+02 -6.04401763e+02 -7.77528480e+02 -9.50655198e+02 -1.12378192e+03 
        </DataArray>
      </PointData>
    </Piece>
    <Piece NumberOfPoints="16" NumberOfCells="9">
      <Points>
        <DataArray type="Float64" NumberOfComponents="3" format="ascii">
          3.00000000e+00 4.00000000e+00 0.00000000e+00 
4.00000000e+00 4.00000000e+00 0.00000000e+00 
5.00000000e+00 4.00000000e+00 0.00000000e+00 
6.00000000e+00 4.00000000e+00 0.00000000e+00 
3.00000000e+00 4.33333349e+00 0.00000000e+00 
4.00000000e+00 4.33333349e+00 0.00000000e+00 
5.00000000e+00 4.33333349e+00 0.00000000e+00 
6.00000000e+00 4.33333349e+00 0.00000000e+00 
3.00000000e+00 4.66666651e+00 0.00000000e+00 
4.00000000e+00 4.66666651e+00 0.00000000e+00 
5.00000000e+00 4.66666651e+00 0.00000000e+00 
6.00000000e+00 4.66666651e+00 0.00000000e+00 
3.00000000e+00 5.00000000e+00 0.00000000e+00 
4.00000000e+00 5.00000000e+00 0.00000000e+00 
5.00000000e+00 5.00000000e+00 0.00000000e+00 
6.00000000e+00 5.00000000e+00 0.00000000e+00 

        </DataArray>
      </Points>
      <Cells>
        <DataArray type="Int32" Name="connectivity" format="ascii">
0 1 5 4
4 5 9 8
8 9 13 12
1 2 6 5
5 6 10 9
9 10 14 13
2 3 7 6
6 7 11 10
10 11 15 14

        </DataArray>
        <DataArray type="Int32" Name="offsets" format="ascii">
4 8 12 16 20 24 28 32 36 
        </DataArray>
        <DataArray type="UInt8" Name="types" format="ascii">
9 9 9 9 9 9 9 9 9 
        </DataArray>
      </Cells>
      <PointData>
        <DataArray type="Float64" Name="u">
          2.04841458e+02 1.99023971e+02 2.01427288e+02 1.96183113e+02 2.23356655e+02 2.14991068e+02 2.12676493e+02 2.03107374e+02 2.19474093e+02 2.09328463e+02 2.03887931e+02 1.90881798e+02 1.93833208e+02 1.83396590e+02 1.76448299e+02 1.62339877e+02 
        </DataArray>
        <DataArray type="Float64" Name="v">
          -5.53641295e+00 -1.29425043e+01 -1.65089233e+01 -1.89318832e+01 -5.38921052e+00 -9.62517638e+00 -1.42432047e+01 -1.83072319e+01 -5.60213624e+00 -8.63124412e+00 -1.16372152e+01 -1.58275157e+01 -4.45254949e+00 -3.80002413e+00 -7.38449090e+00 -1.25910172e+01 
        </DataArray>
        <DataArray type="Float64" Name="p">
          -4.09818326e+02 -6.46649496e+02 -8.83480665e+02 -1.12031184e+03 -1.45292552e+02 -3.52709256e+02 -5.60125959e+02 -7.67542663e+02 1.19233221e+02 -5.87690159e+01 -2.36771253e+02 -4.14773490e+02 3.83758995e+02 2.35171224e+02 8.65834530e+01 -6.20043178e+01 
        </DataArray>
      </PointData>
    </Piece>
    <Piece NumberOfPoints="16" NumberOfCells="9">
      <Points>
        <DataArray type="Float64" NumberOfComponents="3" format="ascii">
          3.00000000e+00 5.00000000e+00 0.00000000e+00 
4.00000000e+00 5.00000000e+00 0.00000000e+00 
5.00000000e+00 5.00000000e+00 0.00000000e+00 
6.00000000e+00 5.00000000e+00 0.00000000e+00 
3.00000000e+00 5.33333349e+00 0.00000000e+00 
4.00000000e+00 5.33333349e+00 0.00000000e+00 
5.00000000e+00 5.33333349e+00 0.00000000e+00 
6.00000000e+00 5.33333349e+00 0.00000000e+00 
3.00000000e+00 5.66666651e+00 0.00000000e+00 
4.00000000e+00 5.66666651e+00 0.00000000e+00 
5.00000000e+00 5.66666651e+00 0.00000000e+00 
6.00000000e+00 5.66666651e+00 0.00000000e+00 
3.00000000e+00 6.00000000e+00 0.00000000e+00 
4.00000000e+00 6.00000000e+00 0.00000000e+00 
5.00000000e+00 6.00000000e+00 0.00000000e+00 
6.00000000e+00 6.00000000e+00 0.00000000e+00 

        </DataArray>
      </Points>
      <Cells>
        <DataArray type="Int32" Name="connectivity" format="ascii">
0 1 5 4
4 5 9 8
8 9 13 12
1 2 6 5
5 6 10 9
9 10 14 13
2 3 7 6
6 7 11 10
10 11 15 14

        </DataArray>
        <DataArray type="Int32" Name="offsets" format="ascii">
4 8 12 16 20 24 28 32 36 
        </DataArray>
        <DataArray type="UInt8" Name="types" format="ascii">
9 9 9 9 9 9 9 9 9 
        </DataArray>
      </Cells>
      <PointData>
        <DataArray type="Float64" Name="u">
          1.93833208e+02 1.83396590e+02 1.76448299e+02 1.62339877e+02 1.47514969e+02 1.38991011e+02 1.33025543e+02 1.22624743e+02 8.07747278e+01 8.42041533e+01 8.31133856e+01 8.12528230e+01 0.00000000e+00 3.96827889e+01 4.03221860e+01 4.99325117e+01 
        </DataArray>
        <DataArray type="Float64" Name="v">
          -4.45254949e+00 -3.80002413e+00 -7.38449090e+00 -1.25910172e+01 -2.68608882e+00 1.97225819e-01 -2.55091938e+00 -8.48958748e+00 -1.07024269e+00 4.34073667e-02 -3.42969591e+00 -6.62916979e+00 0.00000000e+00 -5.86374282e+00 -4.11410549e+00 -2.39782901e+00 
        </DataArray>
        <DataArray type="Float64" Name="p">
          2.64636247e+02 2.11443877e+02 1.58251506e+02 1.05059135e+02 2.85341364e+01 1.37496663e+02 2.46459190e+02 3.55421717e+02 -2.07567974e+02 6.35494500e+01 3.34666874e+02 6.05784299e+02 -4.43670085e+02 -1.03977634e+01 4.22874559e+02 8.56146881e+02 
        </DataArray>
      </PointData>
    </Piece>
    <Piece NumberOfPoints="16" NumberOfCells="9">
      <Points>
        <DataArray type="Float64" NumberOfComponents="3" format="ascii">
          3.00000000e+00 6.00000000e+00 0.00000000e+00 
4.00000000e+00 6.00000000e+00 0.00000000e+00 
5.00000000e+00 6.00000000e+00 0.00000000e+00 
6.00000000e+00 6.00000000e+00 0.00000000e+00 
3.00000000e+00 6.33333349e+00 0.00000000e+00 
4.00000000e+00 6.33333349e+00 0.00000000e+00 
5.00000000e+00 6.33333349e+00 0.00000000e+00 
6.00000000e+00 6.33333349e+00 0.00000000e+00 
3.00000000e+00 6.66666651e+00 0.00000000e+00 
4.00000000e+00 6.66666651e+00 0.00000000e+00 
5.00000000e+00 6.66666651e+00 0.00000000e+00 
6.00000000e+00 6.66666651e+00 0.00000000e+00 
3.00000000e+00 7.00000000e+00 0.00000000e+00 
4.00000000e+00 7.00000000e+00 0.00000000e+00 
5.00000000e+00 7.00000000e+00 0.00000000e+00 
6.00000000e+00 7.00000000e+00 0.00000000e+00 

        </DataArray>
      </Points>
      <Cells>
        <DataArray type="Int32" Name="connectivity" format="ascii">
0 1 5 4
4 5 9 8
8 9 13 12
1 2 6 5
5 6 10 9
9 10 14 13
2 3 7 6
6 7 11 10
10 11 15 14

        </DataArray>
        <DataArray type="Int32" Name="offsets" format="ascii">
4 8 12 16 20 24 28 32 36 
        </DataArray>
        <DataArray type="UInt8" Name="types" format="ascii">
9 9 9 9 9 9 9 9 9 
        </DataArray>
      </Cells>
      <PointData>
        <DataArray type="Float64" Name="u">
          0.00000000e+00 3.96827889e+01 4.03221860e+01 4.99325117e+01 0.00000000e+00 9.94216568e+00 1.45503085e+01 2.24576085e+01 0.00000000e+00 -1.95406637e+00 3.84467234e-01 3.58096133e+00 0.00000000e+00 -6.44133571e+00 -7.12615700e+00 -9.05773110e+00 
        </DataArray>
        <DataArray type="Float64" Name="v">
          0.00000000e+00 -5.86374282e+00 -4.11410549e+00 -2.39782901e+00 0.00000000e+00 -1.34113705e+01 -7.57734707e+00 -1.90799526e+00 0.00000000e+00 -1.53091980e+01 -8.41716731e+00 -2.60076775e+00 0.00000000e+00 -1.36561601e+01 -9.04110427e+00 -3.90307756e+00 
        </DataArray>
        <DataArray type="Float64" Name="p">
          -4.11673526e+02 -6.05746791e+01 2.90524168e+02 6.41623015e+02 -2.08369201e+02 4.24616146e+01 2.93292430e+02 5.44123246e+02 -5.06487584e+00 1.45497908e+02 2.96060692e+02 4.46623476e+02 1.98239449e+02 2.48534202e+02 2.98828954e+02 3.49123707e+02 
        </DataArray>
      </PointData>
    </Piece>
    <Piece NumberOfPoints="16" NumberOfCells="9">
      <Points>
        <DataArray type="Float64" NumberOfComponents="3" format="ascii">
          3.00000000e+00 7.00000000e+00 0.00000000e+00 
4.00000000e+00 7.00000000e+00 0.00000000e+00 
5.00000000e+00 7.00000000e+00 0.00000000e+00 
6.00000000e+00 7.00000000e+00 0.00000000e+00 
3.00000000e+00 7.33333349e+00 0.00000000e+00 
4.00000000e+00 7.33333349e+00 0.00000000e+00 
5.00000000e+00 7.33333349e+00 0.00000000e+00 
6.00000000e+00 7.33333349e+00 0.00000000e+00 
3.00000000e+00 7.66666651e+00 0.00000000e+00 
4.00000000e+00 7.66666651e+00 0.00000000e+00 
5.00000000e+00 7.66666651e+00 0.00000000e+00 
6.00000000e+00 7.66666651e+00 0.00000000e+00 
3.00000000e+00 8.00000000e+00 0.00000000e+00 
4.00000000e+00 8.00000000e+00 0.00000000e+00 
5.00000000e+00 8.00000000e+00 0.00000000e+00 
6.00000000e+00 8.00000000e+00 0.00000000e+00 

        </DataArray>
      </Points>
      <Cells>
        <DataArray type="Int32" Name="connectivity" format="ascii">
0 1 5 4
4 5 9 8
8 9 13 12
1 2 6 5
5 6 10 9
9 10 14 13
2 3 7 6
6 7 11 10
10 11 15 14

        </DataArray>
        <DataArray type="Int32" Name="offsets" format="ascii">
4 8 12 16 20 24 28 32 36 
        </DataArray>
        <DataArray type="UInt8" Name="types" format="ascii">
9 9 9 9 9 9 9 9 9 
        </DataArray>
      </Cells>
      <PointData>
        <DataArray type="Float64" Name="u">
          0.00000000e+00 -6.44133571e+00 -7.12615700e+00 -9.05773110e+00 0.00000000e+00 -8.07813360e+00 -1.11376459e+01 -1.58265172e+01 0.00000000e+00 -8.13884122e+00 -1.23674667e+01 -1.85034412e+01 0.00000000e+00 -7.21558050e+00 -1.14674036e+01 -1.78181479e+01 
        </DataArray>
        <DataArray type="Float64" Name="v">
          0.00000000e+00 -1.36561601e+01 -9.04110427e+00 -3.90307756e+00 0.00000000e+00 -1.08034767e+01 -7.76427812e+00 -3.92759512e+00 0.00000000e+00 -8.13150080e+00 -6.11331343e+00 -3.33264044e+00 0.00000000e+00 -4.88388539e+00 -3.93208044e+00 -2.25838836e+00 
        </DataArray>
        <DataArray type="Float64" Name="p">
          1.80471684e+02 2.58630089e+02 3.36788494e+02 4.14946900e+02 2.39950500e+02 3.07327916e+02 3.74705331e+02 4.42082747e+02 2.99429316e+02 3.56025742e+02 4.12622168e+02 4.69218595e+02 3.58908132e+02 4.04723569e+02 4.50539005e+02 4.96354442e+02 
        </DataArray>
      </PointData>
    </Piece>
    <Piece NumberOfPoints="16" NumberOfCells="9">
      <Points>
        <DataArray type="Float64" NumberOfComponents="3" format="ascii">
          3.00000000e+00 8.00000000e+00 0.00000000e+00 
4.00000000e+00 8.00000000e+00 0.00000000e+00 
5.00000000e+00 8.00000000e+00 0.00000000e+00 
6.00000000e+00 8.00000000e+00 0.00000000e+00 
3.00000000e+00 8.33333302e+00 0.00000000e+00 
4.00000000e+00 8.33333302e+00 0.00000000e+00 
5.00000000e+00 8.33333302e+00 0.00000000e+00 
6.00000000e+00 8.33333302e+00 0.00000000e+00 
3.00000000e+00 8.66666698e+00 0.00000000e+00 
4.00000000e+00 8.66666698e+00 0.00000000e+00 
5.00000000e+00 8.66666698e+00 0.00000000e+00 
6.00000000e+00 8.66666698e+00 0.00000000e+00 
3.00000000e+00 9.00000000e+00 0.00000000e+00 
4.00000000e+00 9.00000000e+00 0.00000000e+00 
5.00000000e+00 9.00000000e+00 0.00000000e+00 
6.00000000e+00 9.00000000e+00 0.00000000e+00 

        </DataArray>
      </Points>
      <Cells>
        <DataArray type="Int32" Name="connectivity" format="ascii">
0 1 5 4
4 5 9 8
8 9 13 12
1 2 6 5
5 6 10 9
9 10 14 13
2 3 7 6
6 7 11 10
10 11 15 14

        </DataArray>
        <DataArray type="Int32" Name="offsets" format="ascii">
4 8 12 16 20 24 28 32 36 
        </DataArray>
        <DataArray type="UInt8" Name="types" format="ascii">
9 9 9 9 9 9 9 9 9 
        </DataArray>
      </Cells>
      <PointData>
        <DataArray type="Float64" Name="u">
          0.00000000e+00 -7.21558050e+00 -1.14674036e+01 -1.78181479e+01 0.00000000e+00 -5.56154406e+00 -8.87970993e+00 -1.43776030e+01 0.00000000e+00 -3.18172635e+00 -4.93177406e+00 -8.38930019e+00 0.00000000e+00 0.00000000e+00 0.00000000e+00 0.00000000e+00 
        </DataArray>
        <DataArray type="Float64" Name="v">
          0.00000000e+00 -4.88388539e+00 -3.93208044e+00 -2.25838836e+00 0.00000000e+00 -2.23292374e+00 -1.90970258e+00 -1.05801484e+00 0.00000000e+00 -7.38236781e-01 -6.82201910e-01 -3.61037347e-01 0.00000000e+00 0.00000000e+00 0.00000000e+00 0.00000000e+00 
        </DataArray>
        <DataArray type="Float64" Name="p">
          3.49522009e+02 4.00003508e+02 4.50485008e+02 5.00966507e+02 3.37396309e+02 3.89169530e+02 4.40942752e+02 4.92715974e+02 3.25270608e+02 3.78335553e+02 4.31400497e+02 4.84465441e+02 3.13144908e+02 3.67501575e+02 4.21858242e+02 4.76214908e+02 
        </DataArray>
      </PointData>
    </Piece>
    <Piece NumberOfPoints="16" NumberOfCells="9">
      <Points>
        <DataArray type="Float64" NumberOfComponents="3" format="ascii">
          6.00000000e+00 0.00000000e+00 0.00000000e+00 
7.00000000e+00 0.00000000e+00 0.00000000e+00 
8.00000000e+00 0.00000000e+00 0.00000000e+00 
9.00000000e+00 0.00000000e+00 0.00000000e+00 
6.00000000e+00 3.33333343e-01 0.00000000e+00 
7.00000000e+00 3.33333343e-01 0.00000000e+00 
8.00000000e+00 3.33333343e-01 0.00000000e+00 
9.00000000e+00 3.33333343e-01 0.00000000e+00 
6.00000000e+00 6.66666687e-01 0.00000000e+00 
7.00000000e+00 6.66666687e-01 0.00000000e+00 
8.00000000e+00 6.66666687e-01 0.00000000e+00 
9.00000000e+00 6.66666687e-01 0.00000000e+00 
6.00000000e+00 1.00000000e+00 0.00000000e+00 
7.00000000e+00 1.00000000e+00 0.00000000e+00 
8.00000000e+00 1.00000000e+00 0.00000000e+00 
9.00000000e+00 1.00000000e+00 0.00000000e+00 

        </DataArray>
      </Points>
      <Cells>
        <DataArray type="Int32" Name="connectivity" format="ascii">
0 1 5 4
4 5 9 8
8 9 13 12
1 2 6 5
5 6 10 9
9 10 14 13
2 3 7 6
6 7 11 10
10 11 15 14

        </DataArray>
        <DataArray type="Int32" Name="offsets" format="ascii">
4 8 12 16 20 24 28 32 36 
        </DataArray>
        <DataArray type="UInt8" Name="types" format="ascii">
9 9 9 9 9 9 9 9 9 
        </DataArray>
      </Cells>
      <PointData>
        <DataArray type="Float64" Name="u">