<?xml version="1.0"?>
<VTKFile type="UnstructuredGrid" version="0.1" byte_order="LittleEndian">
  <UnstructuredGrid>
    <Piece NumberOfPoints="16" NumberOfCells="9">
      <Points>
        <DataArray type="Float64" NumberOfComponents="3" format="ascii">
          0.00000000e+00 3.00000000e+00 0.00000000e+00 
1.00000000e+00 3.00000000e+00 0.00000000e+00 
2.00000000e+00 3.00000000e+00 0.00000000e+00 
3.00000000e+00 3.00000000e+00 0.00000000e+00 
0.00000000e+00 3.33333325e+00 0.00000000e+00 
1.00000000e+00 3.33333325e+00 0.00000000e+00 
2.00000000e+00 3.33333325e+00 0.00000000e+00 
3.00000000e+00 3.33333325e+00 0.00000000e+00 
0.00000000e+00 3.66666675e+00 0.00000000e+00 
1.00000000e+00 3.66666675e+00 0.00000000e+00 
2.00000000e+00 3.66666675e+00 0.00000000e+00 
3.00000000e+00 3.66666675e+00 0.00000000e+00 
0.00000000e+00 4.00000000e+00 0.00000000e+00 
1.00000000e+00 4.00000000e+00 0.00000000e+00 
2.00000000e+00 4.00000000e+00 0.00000000e+00 
3.00000000e+00 4.00000000e+00 0.00000000e+00 

        </DataArray>
      </Points>
      <Cells>
        <DataArray type="Int32" Name="connectivity" format="ascii">
0 1 5 4
4 5 9 8
8 9 13 12
1 2 6 5
5 6 10 9
9 10 14 13
2 3 7 6
6 7 11 10
10 11 15 14

        </DataArray>
        <DataArray type="Int32" Name="offsets" format="ascii">
4 8 12 16 20 24 28 32 36 
        </DataArray>
        <DataArray type="UInt8" Name="types" format="ascii">
9 9 9 9 9 9 9 9 9 
        </DataArray>
      </Cells>
      <PointData>
        <DataArray type="Float64" Name="u">
          0.00000000e+00 0.00000000e+00 0.00000000e+00 0.00000000e+00 8.88888889e+01 9.45323665e+01 9.21137006e+01 1.05138812e+02 1.55555556e+02 1.59878892e+02 1.58880575e+02 1.66665980e+02 2.00000000e+02 2.02459545e+02 2.02244492e+02 2.07371450e+02 
        </DataArray>
        <DataArray type="Float64" Name="v">
          0.00000000e+00 0.00000000e+00 0.00000000e+00 0.00000000e+00 0.00000000e+00 -1.58851638e+00 -2.31686511e+00 -4.40132229e+00 0.00000000e+00 -1.07524432e+00 -2.59586553e+00 -4.39575358e+00 0.00000000e+00 -2.79036445e+00 -4.76269319e+00 -7.15832443e+00 
        </DataArray>
        <DataArray type="Float64" Name="p">
          -1.82973341e+03 -2.52705626e+03 -3.22437912e+03 -3.92170198e+03 -1.78900903e+03 -2.47538784e+03 -3.16176666e+03 -3.84814547e+03 -1.74828464e+03 -2.42371942e+03 -3.09915420e+03 -3.77458897e+03 -1.70756026e+03 -2.37205100e+03 -3.03654174e+03 -3.70103247e+03 
        </DataArray>
      </PointData>
    </Piece>
    <Piece NumberOfPoints="16" NumberOfCells="9">
      <Points>
        <DataArray type="Float64" NumberOfComponents="3" format="ascii">
          0.00000000e+00 4.00000000e+00 0.00000000e+00 
1.00000000e+00 4.00000000e+00 0.00000000e+00 
2.00000000e+00 4.00000000e+00 0.00000000e+00 
3.00000000e+00 4.00000000e+00 0.00000000e+00 
0.00000000e+00 4.33333349e+00 0.00000000e+00 
1.00000000e+00 4.33333349e+00 0.00000000e+00 
2.00000000e+00 4.33333349e+00 0.00000000e+00 
3.00000000e+00 4.33333349e+00 0.00000000e+00 
0.00000000e+00 4.66666651e+00 0.00000000e+00 
1.00000000e+00 4.66666651e+00 0.00000000e+00 
2.00000000e+00 4.66666651e+00 0.00000000e+00 
3.00000000e+00 4.66666651e+00 0.00000000e+00 
0.00000000e+00 5.00000000e+00 0.00000000e+00 
1.00000000e+00 5.00000000e+00 0.00000000e+00 
2.00000000e+00 5.00000000e+00 0.00000000e+00 
3.00000000e+00 5.00000000e+00 0.00000000e+00 

        </DataArray>
      </Points>
      <Cells>
        <DataArray type="Int32" Name="connectivity" format="ascii">
0 1 5 4
4 5 9 8
8 9 13 12
1 2 6 5
5 6 10 9
9 10 14 13
2 3 7 6
6 7 11 10
10 11 15 14

        </DataArray>
        <DataArray type="Int32" Name="offsets" format="ascii">
4 8 12 16 20 24 28 32 36 
        </DataArray>
        <DataArray type="UInt8" Name="types" format="ascii">
9 9 9 9 9 9 9 9 9 
        </DataArray>
      </Cells>
      <PointData>
        <DataArray type="Float64" Name="u">
          2.00000000e+02 2.02459545e+02 2.02244492e+02 2.07371450e+02 2.22222222e+02 2.23082400e+02 2.22923352e+02 2.24250020e+02 2.22222222e+02 2.21292602e+02 2.20984030e+02 2.19184319e+02 2.00000000e+02 1.97549971e+02 1.97349368e+02 1.92133710e+02 
        </DataArray>
        <DataArray type="Float64" Name="v">
          0.00000000e+00 -2.79036445e+00 -4.76269319e+00 -7.15832443e+00 0.00000000e+00 -3.19566375e+00 -5.61961573e+00 -7.34755712e+00 0.00000000e+00 -3.20717294e+00 -5.55821614e+00 -7.38931401e+00 0.00000000e+00 -2.65546121e+00 -4.77559958e+00 -6.34926231e+00 
        </DataArray>
        <DataArray type="Float64" Name="p">
          -1.68184203e+03 -2.34334755e+03 -3.00485307e+03 -3.66635859e+03 -1.42790078e+03 -2.13616342e+03 -2.84442607e+03 -3.55268871e+03 -1.17395954e+03 -1.92897930e+03 -2.68399906e+03 -3.43901883e+03 -9.20018289e+02 -1.72179518e+03 -2.52357206e+03 -3.32534895e+03 
        </DataArray>
      </PointData>
    </Piece>
    <Piece NumberOfPoints="16" NumberOfCells="9">
      <Points>
        <DataArray type="Float64" NumberOfComponents="3" format="ascii">
          0.00000000e+00 5.00000000e+00 0.00000000e+00 
1.00000000e+00 5.00000000e+00 0.00000000e+00 
2.00000000e+00 5.00000000e+00 0.00000000e+00 
3.00000000e+00 5.00000000e+00 0.00000000e+00 
0.00000000e+00 5.33333349e+00 0.00000000e+00 
1.00000000e+00 5.33333349e+00 0.00000000e+00 
2.00000000e+00 5.33333349e+00 0.00000000e+00 
3.00000000e+00 5.33333349e+00 0.00000000e+00 
0.00000000e+00 5.66666651e+00 0.00000000e+00 
1.00000000e+00 5.66666651e+00 0.00000000e+00 
2.00000000e+00 5.66666651e+00 0.00000000e+00 
3.00000000e+00 5.66666651e+00 0.00000000e+00 
0.00000000e+00 6.00000000e+00 0.00000000e+00 
1.00000000e+00 6.00000000e+00 0.00000000e+00 
2.00000000e+00 6.00000000e+00 0.00000000e+00 
3.00000000e+00 6.00000000e+00 0.00000000e+00 

        </DataArray>
      </Points>
      <Cells>
        <DataArray type="Int32" Name="connectivity" format="ascii">
0 1 5 4
4 5 9 8
8 9 13 12
1 2 6 5
5 6 10 9
9 10 14 13
2 3 7 6
6 7 11 10
10 11 15 14

        </DataArray>
        <DataArray type="Int32" Name="offsets" format="ascii">
4 8 12 16 20 24 28 32 36 
        </DataArray>
        <DataArray type="UInt8" Name="types" format="ascii">
9 9 9 9 9 9 9 9 9 
        </DataArray>
      </Cells>
      <PointData>
        <DataArray type="Float64" Name="u">
          2.00000000e+02 1.97549971e+02 1.97349368e+02 1.92133710e+02 1.55555556e+02 1.51709690e+02 1.51951544e+02 1.44249745e+02 8.88888889e+01 8.43038740e+01 8.52780558e+01 7.41743512e+01 0.00000000e+00 0.00000000e+00 0.00000000e+00 0.00000000e+00 
        </DataArray>
        <DataArray type="Float64" Name="v">
          0.00000000e+00 -2.65546121e+00 -4.77559958e+00 -6.34926231e+00 0.00000000e+00 -1.06320794e+00 -2.46331622e+00 -3.98681227e+00 0.00000000e+00 -1.37911937e+00 -2.43871052e+00 -2.78572438e+00 0.00000000e+00 0.00000000e+00 0.00000000e+00 0.00000000e+00 
        </DataArray>
        <DataArray type="Float64" Name="p">
          -9.01572502e+02 -1.69243158e+03 -2.48329066e+03 -3.27414974e+03 -8.52141698e+02 -1.64159552e+03 -2.43104934e+03 -3.22050317e+03 -8.02710893e+02 -1.59075946e+03 -2.37880803e+03 -3.16685659e+03 -7.53280088e+02 -1.53992340e+03 -2.32656671e+03 -3.11321002e+03 
        </DataArray>
      </PointData>
    </Piece>
    <Piece NumberOfPoints="16" NumberOfCells="9">
      <Points>
        <DataArray type="Float64" NumberOfComponents="3" format="ascii">
          3.00000000e+00 0.00000000e+00 0.00000000e+00 
4.00000000e+00 0.00000000e+00 0.00000000e+00 
5.00000000e+00 0.00000000e+00 0.00000000e+00 
6.00000000e+00 0.00000000e+00 0.00000000e+00 
3.00000000e+00 3.33333343e-01 0.00000000e+00 
4.00000000e+00 3.33333343e-01 0.00000000e+00 
5.00000000e+00 3.33333343e-01 0.00000000e+00 
6.00000000e+00 3.33333343e-01 0.00000000e+00 
3.00000000e+00 6.66666687e-01 0.00000000e+00 
4.00000000e+00 6.66666687e-01 0.00000000e+00 
5.00000000e+00 6.66666687e-01 0.00000000e+00 
6.00000000e+00 6.66666687e-01 0.00000000e+00 
3.00000000e+00 1.00000000e+00 0.00000000e+00 
4.00000000e+00 1.00000000e+00 0.00000000e+00 
5.00000000e+00 1.00000000e+00 0.00000000e+00 
6.00000000e+00 1.00000000e+00 0.00000000e+00 

        </DataArray>
      </Points>
      <Cells>
        <DataArray type="Int32" Name="connectivity" format="ascii">
0 1 5 4
4 5 9 8
8 9 13 12
1 2 6 5
5 6 10 9
9 10 14 13
2 3 7 6
6 7 11 10
10 11 15 14

        </DataArray>
        <DataArray type="Int32" Name="offsets" format="ascii">
4 8 12 16 20 24 28 32 36 
        </DataArray>
        <DataArray type="UInt8" Name="types" format="ascii">
9 9 9 9 9 9 9 9 9 
        </DataArray>
      </Cells>
      <PointData>
        <DataArray type="Float64" Name="u">
          0.00000000e+00 0.00000000e+00 0.00000000e+00 0.00000000e+00 0.00000000e+00 -2.59865657e+00 -5.00390901e+00 -8.07088515e+00 0.00000000e+00 -4.79526020e+00 -9.24384648e+00 -1.57015896e+01 0.00000000e+00 -6.34413133e+00 -1.20617886e+01 -1.98214410e+01 
        </DataArray>
        <DataArray type="Float64" Name="v">
          0.00000000e+00 0.00000000e+00 0.00000000e+00 0.00000000e+00 0.00000000e+00 6.96362142e-01 5.91225840e-01 4.52357207e-01 0.00000000e+00 2.09716439e+00 1.91018972e+00 1.47755318e+00 0.00000000e+00 4.62858720e+00 4.53014590e+00 2.90342246e+00 
        </DataArray>
        <DataArray type="Float64" Name="p">
          -4.58159531e+03 -4.57082586e+03 -4.56005642e+03 -4.54928697e+03 -4.57769298e+03 -4.56540579e+03 -4.55311860e+03 -4.54083141e+03 -4.57379066e+03 -4.55998572e+03 -4.54618079e+03 -4.53237585e+03 -4.56988833e+03 -4.55456565e+03 -4.53924297e+03 -4.52392029e+03 
        </DataArray>
      </PointData>
    </Piece>
    <Piece NumberOfPoints="16" NumberOfCells="9">
      <Points>
        <DataArray type="Float64" NumberOfComponents="3" format="ascii">
          3.00000000e+00 1.00000000e+00 0.00000000e+00 
4.00000000e+00 1.00000000e+00 0.00000000e+00 
5.00000000e+00 1.00000000e+00 0.00000000e+00 
6.00000000e+00 1.00000000e+00 0.00000000e+00 
3.00000000e+00 1.33333337e+00 0.00000000e+00 
4.00000000e+00 1.33333337e+00 0.00000000e+00 
5.00000000e+00 1.33333337e+00 0.00000000e+00 
6.00000000e+00 1.33333337e+00 0.00000000e+00 
3.00000000e+00 1.66666663e+00 0.00000000e+00 
4.00000000e+00 1.66666663e+00 0.00000000e+00 
5.00000000e+00 1.66666663e+00 0.00000000e+00 
6.00000000e+00 1.66666663e+00 0.00000000e+00 
3.00000000e+00 2.00000000e+00 0.00000000e+00 
4.00000000e+00 2.00000000e+00 0.00000000e+00 
5.00000000e+00 2.00000000e+00 0.00000000e+00 
6.00000000e+00 2.00000000e+00 0.00000000e+00 

        </DataArray>
      </Points>
      <Cells>
        <DataArray type="Int32" Name="connectivity" format="ascii">
0 1 5 4
4 5 9 8
8 9 13 12
1 2 6 5
5 6 10 9
9 10 14 13
2 3 7 6
6 7 11 10
10 11 15 14

        </DataArray>
        <DataArray type="Int32" Name="offsets" format="ascii">
4 8 12 16 20 24 28 32 36 
        </DataArray>
        <DataArray type="UInt8" Name="types" format="ascii">
9 9 9 9 9 9 9 9 9 
        </DataArray>
      </Cells>
      <PointData>
        <DataArray type="Float64" Name="u">
          0.00000000e+00 -6.34413133e+00 -1.20617886e+01 -1.98214410e+01 0.00000000e+00 -7.06008407e+00 -1.26047773e+01 -1.90887060e+01 0.00000000e+00 -6.79130003e+00 -1.02624302e+01 -1.29769439e+01 0.00000000e+00 -5.12248341e+00 -4.26837055e+00 -6.92982804e-01 
        </DataArray>
        <DataArray type="Float64" Name="v">
          0.00000000e+00 4.62858720e+00 4.53014590e+00 2.90342246e+00 0.00000000e+00 7.74184968e+00 7.12601858e+00 4.49821122e+00 0.00000000e+00 1.01835892e+01 8.81338921e+00 4.69415363e+00 0.00000000e+00 1.25998326e+01 9.41704407e+00 3.23278306e+00 
        </DataArray>
        <DataArray type="Float64" Name="p">
          -4.56363933e+03 -4.55294547e+03 -4.54225162e+03 -4.53155776e+03 -4.58696357e+03 -4.58309266e+03 -4.57922174e+03 -4.57535082e+03 -4.61028781e+03 -4.61323984e+03 -4.61619186e+03 -4.61914389e+03 -4.63361206e+03 -4.64338702e+03 -4.65316199e+03 -4.66293695e+03 
        </DataArray>
      </PointData>
    </Piece>
    <Piece NumberOfPoints="16" NumberOfCells="9">
      <Points>
        <DataArray type="Float64" NumberOfComponents="3" format="ascii">
          3.00000000e+00 2.00000000e+00 0.00000000e+00 
4.00000000e+00 2.00000000e+00 0.00000000e+00 
5.00000000e+00 2.00000000e+00 0.00000000e+00 
6.00000000e+00 2.00000000e+00 0.00000000e+00 
3.00000000e+00 2.33333325e+00 0.00000000e+00 
4.00000000e+00 2.33333325e+00 0.00000000e+00 
5.00000000e+00 2.33333325e+00 0.00000000e+00 
6.00000000e+00 2.33333325e+00 0.00000000e+00 
3.00000000e+00 2.66666675e+00 0.00000000e+00 
4.00000000e+00 2.66666675e+00 0.00000000e+00 
5.00000000e+00 2.66666675e+00 0.00000000e+00 
6.00000000e+00 2.66666675e+00 0.00000000e+00 
3.00000000e+00 3.00000000e+00 0.00000000e+00 
4.00000000e+00 3.00000000e+00 0.00000000e+00 
5.00000000e+00 3.00000000e+00 0.00000000e+00 
6.00000000e+00 3.00000000e+00 0.00000000e+00 

        </DataArray>
      </Points>
      <Cells>
        <DataArray type="Int32" Name="connectivity" format="ascii">
0 1 5 4
4 5 9 8
8 9 13 12
1 2 6 5
5 6 10 9
9 10 14 13
2 3 7 6
6 7 11 10
10 11 15 14

        </DataArray>
        <DataArray type="Int32" Name="offsets" format="ascii">
4 8 12 16 20 24 28 32 36 
        </DataArray>
        <DataArray type="UInt8" Name="types" format="ascii">
9 9 9 9 9 9 9 9 9 
        </DataArray>
      </Cells>
      <PointData>
        <DataArray type="Float64" Name="u">
          0.00000000e+00 -5.12248341e+00 -4.26837055e+00 -6.92982804e-01 0.00000000e+00 -8.16412655e-01 5.93422510e+00 2.07754308e+01 0.00000000e+00 1.27719791e+01 2.68884294e+01 5.19367530e+01 0.00000000e+00 5.48785897e+01 7.14076114e+01 9.82014808e+01 
        </DataArray>
        <DataArray type="Float64" Name="v">
          0.00000000e+00 1.25998326e+01 9.41704407e+00 3.23278306e+00 0.00000000e+00 1.36835346e+01 6.26424679e+00 -2.42726988e+00 0.00000000e+00 1.04557989e+01 2.88428754e+00 -6.92319701e+00 0.00000000e+00 -1.04713478e+00 -6.74807990e+00 -1.25459595e+01 
        </DataArray>
        <DataArray type="Float64" Name="p">
          -4.61005977e+03 -4.65202760e+03 -4.69399544e+03 -4.73596327e+03 -4.73435519e+03 -4.69859132e+03 -4.66282746e+03 -4.62706359e+03 -4.85865060e+03 -4.74515504e+03 -4.63165948e+03 -4.51816391e+03 -4.98294602e+03 -4.79171876e+03 -4.60049150e+03 -4.40926424e+03 
        </DataArray>
      </PointData>
    </Piece>
    <Piece NumberOfPoints="16" NumberOfCells="9">
      <Points>
        <DataArray type="Float64" NumberOfComponents="3" format="ascii">
          3.00000000e+00 3.00000000e+00 0.00000000e+00 
4.00000000e+00 3.00000000e+00 0.00000000e+00 
5.00000000e+00 3.00000000e+00 0.00000000e+00 
6.00000000e+00 3.00000000e+00 0.00000000e+00 
3.00000000e+00 3.33333325e+00 0.00000000e+00 
4.00000000e+00 3.33333325e+00 0.00000000e+00 
5.00000000e+00 3.33333325e+00 0.00000000e+00 
6.00000000e+00 3.33333325e+00 0.00000000e+00 
3.00000000e+00 3.66666675e+00 0.00000000e+00 
4.00000000e+00 3.66666675e+00 0.00000000e+00 
5.00000000e+00 3.66666675e+00 0.00000000e+00 
6.00000000e+00 3.66666675e+00 0.00000000e+00 
3.00000000e+00 4.00000000e+00 0.00000000e+00 
4.00000000e+00 4.00000000e+00 0.00000000e+00 
5.00000000e+00 4.00000000e+00 0.00000000e+00 
6.00000000e+00 4.00000000e+00 0.00000000e+00 

        </DataArray>
      </Points>
      <Cells>
        <DataArray type="Int32" Name="connectivity" format="ascii">
0 1 5 4
4 5 9 8
8 9 13 12
1 2 6 5
5 6 10 9
9 10 14 13
2 3 7 6
6 7 11 10
10 11 15 14

        </DataArray>
        <DataArray type="Int32" Name="offsets" format="ascii">
4 8 12 16 20 24 28 32 36 
        </DataArray>
        <DataArray type="UInt8" Name="types" format="ascii">
9 9 9 9 9 9 9 9 9 
        </DataArray>
      </Cells>
      <PointData>
        <DataArray type="Float64" Name="u">
          0.00000000e+00 5.48785897e+01 7.14076114e+01 9.82014808e+01 1.05138812e+02 1.14840090e+02 1.29975303e+02 1.45399287e+02 1.66665980e+02 1.69854307e+02 1.77923564e+02 1.85137401e+02 2.07371450e+02 2.05098978e+02 2.09383168e+02 2.08828010e+02 
        </DataArray>
        <DataArray type="Float64" Name="v">
          0.00000000e+00 -1.04713478e+00 -6.74807990e+00 -1.25459595e+01 -4.40132229e+00 -1.24857904e+01 -1.57626582e+01 -1.69865258e+01 -4.39575358e+00 -1.17592525e+01 -1.61807420e+01 -1.84284410e+01 -7.15832443e+00 -1.39096139e+01 -1.86551033e+01 -2.30303708e+01 
        </DataArray>
        <DataArray type="Float64" Name="p">
          -5.12577054e+03 -4.87554985e+03 -4.62532915e+03 -4.37510845e+03 -4.68895694e+03 -4.57899077e+03 -4.46902459e+03 -4.35905842e+03 -4.25214334e+03 -4.28243169e+03 -4.31272004e+03 -4.34300840e+03 -3.81532973e+03 -3.98587261e+03 -4.15641549e+03 -4.32695837e+03 
        </DataArray>
      </PointData>
    </Piece>
    <Piece NumberOfPoints="16" NumberOfCells="9">
      <Points>
        <DataArray type="Float64" NumberOfComponents="3" format="ascii">
          3.00000000e+00 4.00000000e+00 0.00000000e+00 
4.00000000e+00 4.00000000e+00 0.00000000e+00 
5.00000000e+00 4.00000000e+00 0.00000000e+00 
6.00000000e+00 4.00000000e+00 0.00000000e+00 
3.00000000e+00 4.33333349e+00 0.00000000e+00 
4.00000000e+00 4.33333349e+00 0.00000000e+00 
5.00000000e+00 4.33333349e+00 0.00000000e+00 
6.00000000e+00 4.33333349e+00 0.00000000e+00 
3.00000000e+00 4.66666651e+00 0.00000000e+00 
4.00000000e+00 4.66666651e+00 0.00000000e+00 
5.00000000e+00 4.66666651e+00 0.00000000e+00 
6.00000000e+00 4.66666651e+00 0.00000000e+00 
3.00000000e+00 5.00000000e+00 0.00000000e+00 
4.00000000e+00 5.00000000e+00 0.00000000e+00 
5.00000000e+00 5.00000000e+00 0.00000000e+00 
6.00000000e+00 5.00000000e+00 0.00000000e+00 

        </DataArray>
      </Points>
      <Cells>
        <DataArray type="Int32" Name="connectivity" format="ascii">
0 1 5 4
4 5 9 8
8 9 13 12
1 2 6 5
5 6 10 9
9 10 14 13
2 3 7 6
6 7 11 10
10 11 15 14

        </DataArray>
        <DataArray type="Int32" Name="offsets" format="ascii">
4 8 12 16 20 24 28 32 36 
        </DataArray>
        <DataArray type="UInt8" Name="types" format="ascii">
9 9 9 9 9 9 9 9 9 
        </DataArray>
      </Cells>
      <PointData>
        <DataArray type="Float64" Name="u">
          2.07371450e+02 2.05098978e+02 2.09383168e+02 2.08828010e+02 2.24250020e+02 2.20117239e+02 2.18646561e+02 2.12573917e+02 2.19184319e+02 2.11978848e+02 2.06589165e+02 1.95039376e+02 1.92133710e+02 1.83511337e+02 1.75235186e+02 1.60441086e+02 
        </DataArray>
        <DataArray type="Float64" Name="v">
          -7.15832443e+00 -1.39096139e+01 -1.86551033e+01 -2.30303708e+01 -7.34755712e+00 -1.20645766e+01 -1.73445411e+01 -2.24423338e+01 -7.38931401e+00 -1.19886152e+01 -1.61700777e+01 -2.07625751e+01 -6.34926231e+00 -7.93202998e+00 -1.18148399e+01 -1.63932416e+01 
        </DataArray>
        <DataArray type="Float64" Name="p">
          -3.71880462e+03 -3.89686078e+03 -4.07491694e+03 -4.25297309e+03 -3.38027980e+03 -3.53857037e+03 -3.69686095e+03 -3.85515152e+03 -3.04175498e+03 -3.18027997e+03 -3.31880496e+03 -3.45732995e+03 -2.70323016e+03 -2.82198957e+03 -2.94074897e+03 -3.05950838e+03 
        </DataArray>
      </PointData>
    </Piece>
    <Piece NumberOfPoints="16" NumberOfCells="9">
      <Points>
        <DataArray type="Float64" NumberOfComponents="3" format="ascii">
          3.00000000e+00 5.00000000e+00 0.00000000e+00 
4.00000000e+00 5.00000000e+00 0.00000000e+00 
5.00000000e+00 5.00000000e+00 0.00000000e+00 
6.00000000e+00 5.00000000e+00 0.00000000e+00 
3.00000000e+00 5.33333349e+00 0.00000000e+00 
4.00000000e+00 5.33333349e+00 0.00000000e+00 
5.00000000e+00 5.33333349e+00 0.00000000e+00 
6.00000000e+00 5.33333349e+00 0.00000000e+00 
3.00000000e+00 5.66666651e+00 0.00000000e+00 
4.00000000e+00 5.66666651e+00 0.00000000e+00 
5.00000000e+00 5.66666651e+00 0.00000000e+00 
6.00000000e+00 5.66666651e+00 0.00000000e+00 
3.00000000e+00 6.00000000e+00 0.00000000e+00 
4.00000000e+00 6.00000000e+00 0.00000000e+00 
5.00000000e+00 6.00000000e+00 0.00000000e+00 
6.00000000e+00 6.00000000e+00 0.00000000e+00 

        </DataArray>
      </Points>
      <Cells>
        <DataArray type="Int32" Name="connectivity" format="ascii">
0 1 5 4
4 5 9 8
8 9 13 12
1 2 6 5
5 6 10 9
9 10 14 13
2 3 7 6
6 7 11 10
10 11 15 14

        </DataArray>
        <DataArray type="Int32" Name="offsets" format="ascii">
4 8 12 16 20 24 28 32 36 
        </DataArray>
        <DataArray type="UInt8" Name="types" format="ascii">
9 9 9 9 9 9 9 9 9 
        </DataArray>
      </Cells>
      <PointData>
        <DataArray type="Float64" Name="u">
          1.92133710e+02 1.83511337e+02 1.75235186e+02 1.60441086e+02 1.44249745e+02 1.34415596e+02 1.25565714e+02 1.11428068e+02 7.41743512e+01 7.37291948e+01 6.88431015e+01 6.26145541e+01 0.00000000e+00 2.86541385e+01 2.69576614e+01 3.26390178e+01 
        </DataArray>
        <DataArray type="Float64" Name="v">
          -6.34926231e+00 -7.93202998e+00 -1.18148399e+01 -1.63932416e+01 -3.98681227e+00 -3.34147125e+00 -5.64357556e+00 -1.02189867e+01 -2.78572438e+00 -3.26951886e+00 -6.47458829e+00 -8.74437858e+00 0.00000000e+00 -6.58054447e+00 -4.95087179e+00 -3.32285537e+00 
        </DataArray>
        <DataArray type="Float64" Name="p">
          -2.73956109e+03 -2.79857703e+03 -2.85759297e+03 -2.91660891e+03 -2.80746110e+03 -2.78870965e+03 -2.76995819e+03 -2.75120674e+03 -2.87536111e+03 -2.77884226e+03 -2.68232342e+03 -2.58580458e+03 -2.94326111e+03 -2.76897488e+03 -2.59468865e+03 -2.42040241e+03 
        </DataArray>
      </PointData>
    </Piece>
    <Piece NumberOfPoints="16" NumberOfCells="9">
      <Points>
        <DataArray type="Float64" NumberOfComponents="3" format="ascii">
          3.00000000e+00 6.00000000e+00 0.00000000e+00 
4.00000000e+00 6.00000000e+00 0.00000000e+00 
5.00000000e+00 6.00000000e+00 0.00000000e+00 
6.00000000e+00 6.00000000e+00 0.00000000e+00 
3.00000000e+00 6.33333349e+00 0.00000000e+00 
4.00000000e+00 6.33333349e+00 0.00000000e+00 
5.00000000e+00 6.33333349e+00 0.00000000e+00 
6.00000000e+00 6.33333349e+00 0.00000000e+00 
3.00000000e+00 6.66666651e+00 0.00000000e+00 
4.00000000e+00 6.66666651e+00 0.00000000e+00 
5.00000000e+00 6.66666651e+00 0.00000000e+00 
6.00000000e+00 6.66666651e+00 0.00000000e+00 
3.00000000e+00 7.00000000e+00 0.00000000e+00 
4.00000000e+00 7.00000000e+00 0.00000000e+00 
5.00000000e+00 7.00000000e+00 0.00000000e+00 
6.00000000e+00 7.00000000e+00 0.00000000e+00 

        </DataArray>
      </Points>
      <Cells>
        <DataArray type="Int32" Name="connectivity" format="ascii">
0 1 5 4
4 5 9 8
8 9 13 12
1 2 6 5
5 6 10 9
9 10 14 13
2 3 7 6
6 7 11 10
10 11 15 14

        </DataArray>
        <DataArray type="Int32" Name="offsets" format="ascii">
4 8 12 16 20 24 28 32 36 
        </DataArray>
        <DataArray type="UInt8" Name="types" format="ascii">
9 9 9 9 9 9 9 9 9 
        </DataArray>
      </Cells>
      <PointData>
        <DataArray type="Float64" Name="u">
          0.00000000e+00 2.86541385e+01 2.69576614e+01 3.26390178e+01 0.00000000e+00 4.41182005e+00 6.21409696e+00 1.07126921e+01 0.00000000e+00 -3.12566025e+00 -3.17839729e+00 -2.52490585e+00 0.00000000e+00 -5.40431301e+00 -7.52080450e+00 -1.01731328e+01 
        </DataArray>
        <DataArray type="Float64" Name="v">
          0.00000000e+00 -6.58054447e+00 -4.95087179e+00 -3.32285537e+00 0.00000000e+00 -1.12014335e+01 -7.00947799e+00 -2.96335497e+00 0.00000000e+00 -1.16114209e+01 -6.76007068e+00 -3.34372683e+00 0.00000000e+00 -9.81149526e+00 -6.77084296e+00 -3.84650410e+00 
        </DataArray>
        <DataArray type="Float64" Name="p">
          -2.92882797e+03 -2.81004446e+03 -2.69126094e+03 -2.57247743e+03 -2.84642975e+03 -2.76564683e+03 -2.68486391e+03 -2.60408098e+03 -2.76403153e+03 -2.72124920e+03 -2.67846687e+03 -2.63568454e+03 -2.68163331e+03 -2.67685157e+03 -2.67206983e+03 -2.66728809e+03 
        </DataArray>
      </PointData>
    </Piece>
    <Piece NumberOfPoints="16" NumberOfCells="9">
      <Points>
        <DataArray type="Float64" NumberOfComponents="3" format="ascii">
          3.00000000e+00 7.00000000e+00 0.00000000e+00 
4.00000000e+00 7.00000000e+00 0.00000000e+00 
5.00000000e+00 7.00000000e+00 0.00000000e+00 
6.00000000e+00 7.00000000e+00 0.00000000e+00 
3.00000000e+00 7.33333349e+00 0.00000000e+00 
4.00000000e+00 7.33333349e+00 0.00000000e+00 
5.00000000e+00 7.33333349e+00 0.00000000e+00 
6.00000000e+00 7.33333349e+00 0.00000000e+00 
3.00000000e+00 7.66666651e+00 0.00000000e+00 
4.00000000e+00 7.66666651e+00 0.00000000e+00 
5.00000000e+00 7.66666651e+00 0.00000000e+00 
6.00000000e+00 7.66666651e+00 0.00000000e+00 
3.00000000e+00 8.00000000e+00 0.00000000e+00 
4.00000000e+00 8.00000000e+00 0.00000000e+00 
5.00000000e+00 8.00000000e+00 0.00000000e+00 
6.00000000e+00 8.00000000e+00 0.00000000e+00 

        </DataArray>
      </Points>
      <Cells>
        <DataArray type="Int32" Name="connectivity" format="ascii">
0 1 5 4
4 5 9 8
8 9 13 12
1 2 6 5
5 6 10 9
9 10 14 13
2 3 7 6
6 7 11 10
10 11 15 14

        </DataArray>
        <DataArray type="Int32" Name="offsets" format="ascii">
4 8 12 16 20 24 28 32 36 
        </DataArray>
        <DataArray type="UInt8" Name="types" format="ascii">
9 9 9 9 9 9 9 9 9 
        </DataArray>
      </Cells>
      <PointData>
        <DataArray type="Float64" Name="u">
          0.00000000e+00 -5.40431301e+00 -7.52080450e+00 -1.01731328e+01 0.00000000e+00 -5.88693384e+00 -9.37690106e+00 -1.33748462e+01 0.00000000e+00 -5.48099964e+00 -9.38371076e+00 -1.38790919e+01 0.00000000e+00 -4.57146612e+00 -8.11372300e+00 -1.23917122e+01 
        </DataArray>
        <DataArray type="Float64" Name="v">
          0.00000000e+00 -9.81149526e+00 -6.77084296e+00 -3.84650410e+00 0.00000000e+00 -7.40506659e+00 -5.47222548e+00 -3.38794196e+00 0.00000000e+00 -5.42209340e+00 -4.18703621e+00 -2.69076655e+00 0.00000000e+00 -3.12630784e+00 -2.57423447e+00 -1.71633872e+00 
        </DataArray>
        <DataArray type="Float64" Name="p">
          -2.68748840e+03 -2.67098858e+03 -2.65448875e+03 -2.63798893e+03 -2.66539856e+03 -2.65199627e+03 -2.63859398e+03 -2.62519168e+03 -2.64330871e+03 -2.63300395e+03 -2.62269920e+03 -2.61239444e+03 -2.62121886e+03 -2.61401164e+03 -2.60680442e+03 -2.59959720e+03 
        </DataArray>
      </PointData>
    </Piece>
    <Piece NumberOfPoints="16" NumberOfCells="9">
      <Points>
        <DataArray type="Float64" NumberOfComponents="3" format="ascii">
          3.00000000e+00 8.00000000e+00 0.00000000e+00 
4.00000000e+00 8.00000000e+00 0.00000000e+00 
5.00000000e+00 8.00000000e+00 0.00000000e+00 
6.00000000e+00 8.00000000e+00 0.00000000e+00 
3.00000000e+00 8.33333302e+00 0.00000000e+00 
4.00000000e+00 8.33333302e+00 0.00000000e+00 
5.00000000e+00 8.33333302e+00 0.00000000e+00 
6.00000000e+00 8.33333302e+00 0.00000000e+00 
3.00000000e+00 8.66666698e+00 0.00000000e+00 
4.00000000e+00 8.66666698e+00 0.00000000e+00 
5.00000000e+00 8.66666698e+00 0.00000000e+00 
6.00000000e+00 8.66666698e+00 0.00000000e+00 
3.00000000e+00 9.00000000e+00 0.00000000e+00 
4.00000000e+00 9.00000000e+00 0.00000000e+00 
5.00000000e+00 9.00000000e+00 0.00000000e+00 
6.00000000e+00 9.00000000e+00 0.00000000e+00 

        </DataArray>
      </Points>
      <Cells>
        <DataArray type="Int32" Name="connectivity" format="ascii">
0 1 5 4
4 5 9 8
8 9 13 12
1 2 6 5
5 6 10 9
9 10 14 13
2 3 7 6
6 7 11 10
10 11 15 14

        </DataArray>
        <DataArray type="Int32" Name="offsets" format="ascii">
4 8 12 16 20 24 28 32 36 
        </DataArray>
        <DataArray type="UInt8" Name="types" format="ascii">
9 9 9 9 9 9 9 9 9 
        </DataArray>
      </Cells>
      <PointData>
        <DataArray type="Float64" Name="u">
          0.00000000e+00 -4.57146612e+00 -8.11372300e+00 -1.23917122e+01 0.00000000e+00 -3.33132283e+00 -5.94635459e+00 -9.44488408e+00 0.00000000e+00 -1.80301311e+00 -3.15565696e+00 -5.24251080e+00 0.00000000e+00 0.00000000e+00 0.00000000e+00 0.00000000e+00 
        </DataArray>
        <DataArray type="Float64" Name="v">
          0.00000000e+00 -3.12630784e+00 -2.57423447e+00 -1.71633872e+00 0.00000000e+00 -1.38929151e+00 -1.21324599e+00 -7.86736915e-01 0.00000000e+00 -4.39411144e-01 -4.14830818e-01 -2.60211406e-01 0.00000000e+00 0.00000000e+00 0.00000000e+00 0.00000000e+00 
        </DataArray>
        <DataArray type="Float64" Name="p">
          -2.62584565e+03 -2.61711354e+03 -2.60838143e+03 -2.59964931e+03 -2.63023354e+03 -2.62118333e+03 -2.61213311e+03 -2.60308290e+03 -2.63462143e+03 -2.62525311e+03 -2.61588480e+03 -2.60651649e+03 -2.63900931e+03 -2.62932290e+03 -2.61963649e+03 -2.60995008e+03 
        </DataArray>
      </PointData>
    </Piece>
    <Piece NumberOfPoints="16" NumberOfCells="9">
      <Points>
        <DataArray type="Float64" NumberOfComponents="3" format="ascii">
          6.00000000e+00 0.00000000e+00 0.00000000e+00 
7.00000000e+00 0.00000000e+00 0.00000000e+00 
8.00000000e+00 0.00000000e+00 0.00000000e+00 
9.00000000e+00 0.00000000e+00 0.00000000e+00 
6.00000000e+00 3.33333343e-01 0.00000000e+00 
7.00000000e+00 3.33333343e-01 0.00000000e+00 
8.00000000e+00 3.33333343e-01 0.00000000e+00 
9.00000000e+00 3.33333343e-01 0.00000000e+00 
6.00000000e+00 6.66666687e-01 0.00000000e+00 
7.00000000e+00 6.66666687e-01 0.00000000e+00 
8.00000000e+00 6.66666687e-01 0.00000000e+00 
9.00000000e+00 6.66666687e-01 0.00000000e+00 
6.00000000e+00 1.00000000e+00 0.00000000e+00 
7.00000000e+00 1.00000000e+00 0.00000000e+00 
8.00000000e+00 1.00000000e+00 0.00000000e+00 
9.00000000e+00 1.00000000e+00 0.00000000e+00 

        </DataArray>
      </Points>
      <Cells>
        <DataArray type="Int32" Name="connectivity" format="ascii">
0 1 5 4
4 5 9 8
8 9 13 12
1 2 6 5
5 6 10 9
9 10 14 13
2 3 7 6
6 7 11 10
10 11 15 14

        </DataArray>
        <DataArray type="Int32" Name="offsets" format="ascii">
4 8 12 16 20 24 28 32 36 
        </DataArray>
        <DataArray type="UInt8" Name="types" format="ascii">
9 9 9 9 9 9 9 9 9 
        </DataArray>
      </Cells>
      <PointData>
        <DataArray type="Float64" Name="u">