<?xml version="1.0"?>
<VTKFile type="UnstructuredGrid" version="0.1" byte_order="LittleEndian">
  <UnstructuredGrid>
    <Piece NumberOfPoints="16" NumberOfCells="9">
      <Points>
        <DataArray type="Float64" NumberOfComponents="3" format="ascii">
          0.00000000e+00 3.00000000e+00 0.00000000e+00 
1.00000000e+00 3.00000000e+00 0.00000000e+00 
2.00000000e+00 3.00000000e+00 0.00000000e+00 
3.00000000e+00 3.00000000e+00 0.00000000e+00 
0.00000000e+00 3.33333325e+00 0.00000000e+00 
1.00000000e+00 3.33333325e+00 0.00000000e+00 
2.00000000e+00 3.33333325e+00 0.00000000e+00 
3.00000000e+00 3.33333325e+00 0.00000000e+00 
0.00000000e+00 3.66666675e+00 0.00000000e+00 
1.00000000e+00 3.66666675e+00 0.00000000e+00 
2.00000000e+00 3.66666675e+00 0.00000000e+00 
3.00000000e+00 3.66666675e+00 0.00000000e+00 
0.00000000e+00 4.00000000e+00 0.00000000e+00 
1.00000000e+00 4.00000000e+00 0.00000000e+00 
2.00000000e+00 4.00000000e+00 0.00000000e+00 
3.00000000e+00 4.00000000e+00 0.00000000e+00 

        </DataArray>
      </Points>
      <Cells>
        <DataArray type="Int32" Name="connectivity" format="ascii">
0 1 5 4
4 5 9 8
8 9 13 12
1 2 6 5
5 6 10 9
9 10 14 13
2 3 7 6
6 7 11 10
10 11 15 14

        </DataArray>
        <DataArray type="Int32" Name="offsets" format="ascii">
4 8 12 16 20 24 28 32 36 
        </DataArray>
        <DataArray type="UInt8" Name="types" format="ascii">
9 9 9 9 9 9 9 9 9 
        </DataArray>
      </Cells>
      <PointData>
        <DataArray type="Float64" Name="u">
          0.00000000e+00 0.00000000e+00 0.00000000e+00 0.00000000e+00 8.88888889e+01 9.20059227e+01 9.08503689e+01 9.94762538e+01 1.55555556e+02 1.58354594e+02 1.58103200e+02 1.63820826e+02 2.00000000e+02 2.01453884e+02 2.01982455e+02 2.04911420e+02 
        </DataArray>
        <DataArray type="Float64" Name="v">
          0.00000000e+00 0.00000000e+00 0.00000000e+00 0.00000000e+00 0.00000000e+00 -7.95254604e-01 -1.14353379e+00 -3.73433749e+00 0.00000000e+00 -7.43865533e-01 -1.79353690e+00 -3.58378188e+00 0.00000000e+00 -1.76377315e+00 -3.20348559e+00 -5.58799950e+00 
        </DataArray>
        <DataArray type="Float64" Name="p">
          3.23901123e+03 1.78790189e+03 3.36792555e+02 -1.11431678e+03 3.24478433e+03 1.81646065e+03 3.88136974e+02 -1.04018670e+03 3.25055743e+03 1.84501941e+03 4.39481394e+02 -9.66056626e+02 3.25633054e+03 1.87357818e+03 4.90825814e+02 -8.91926548e+02 
        </DataArray>
      </PointData>
    </Piece>
    <Piece NumberOfPoints="16" NumberOfCells="9">
      <Points>
        <DataArray type="Float64" NumberOfComponents="3" format="ascii">
          0.00000000e+00 4.00000000e+00 0.00000000e+00 
1.00000000e+00 4.00000000e+00 0.00000000e+00 
2.00000000e+00 4.00000000e+00 0.00000000e+00 
3.00000000e+00 4.00000000e+00 0.00000000e+00 
0.00000000e+00 4.33333349e+00 0.00000000e+00 
1.00000000e+00 4.33333349e+00 0.00000000e+00 
2.00000000e+00 4.33333349e+00 0.00000000e+00 
3.00000000e+00 4.33333349e+00 0.00000000e+00 
0.00000000e+00 4.66666651e+00 0.00000000e+00 
1.00000000e+00 4.66666651e+00 0.00000000e+00 
2.00000000e+00 4.66666651e+00 0.00000000e+00 
3.00000000e+00 4.66666651e+00 0.00000000e+00 
0.00000000e+00 5.00000000e+00 0.00000000e+00 
1.00000000e+00 5.00000000e+00 0.00000000e+00 
2.00000000e+00 5.00000000e+00 0.00000000e+00 
3.00000000e+00 5.00000000e+00 0.00000000e+00 

        </DataArray>
      </Points>
      <Cells>
        <DataArray type="Int32" Name="connectivity" format="ascii">
0 1 5 4
4 5 9 8
8 9 13 12
1 2 6 5
5 6 10 9
9 10 14 13
2 3 7 6
6 7 11 10
10 11 15 14

        </DataArray>
        <DataArray type="Int32" Name="offsets" format="ascii">
4 8 12 16 20 24 28 32 36 
        </DataArray>
        <DataArray type="UInt8" Name="types" format="ascii">
9 9 9 9 9 9 9 9 9 
        </DataArray>
      </Cells>
      <PointData>
        <DataArray type="Float64" Name="u">
          2.00000000e+02 2.01453884e+02 2.01982455e+02 2.04911420e+02 2.22222222e+02 2.22372425e+02 2.22835368e+02 2.23386075e+02 2.22222222e+02 2.21016792e+02 2.21404033e+02 2.19460506e+02 2.00000000e+02 1.97682732e+02 1.98233406e+02 1.93777914e+02 
        </DataArray>
        <DataArray type="Float64" Name="v">
          0.00000000e+00 -1.76377315e+00 -3.20348559e+00 -5.58799950e+00 0.00000000e+00 -1.98646072e+00 -3.83392656e+00 -5.44874368e+00 0.00000000e+00 -2.00894726e+00 -3.70558168e+00 -5.66046026e+00 0.00000000e+00 -1.50110163e+00 -3.14727337e+00 -4.50989819e+00 
        </DataArray>
        <DataArray type="Float64" Name="p">
          3.28196298e+03 1.90223003e+03 5.22497077e+02 -8.57235877e+02 3.42673979e+03 2.04472420e+03 6.62708615e+02 -7.19306974e+02 3.57151660e+03 2.18721838e+03 8.02920152e+02 -5.81378071e+02 3.71629341e+03 2.32971255e+03 9.43131690e+02 -4.43449168e+02 
        </DataArray>
      </PointData>
    </Piece>
    <Piece NumberOfPoints="16" NumberOfCells="9">
      <Points>
        <DataArray type="Float64" NumberOfComponents="3" format="ascii">
          0.00000000e+00 5.00000000e+00 0.00000000e+00 
1.00000000e+00 5.00000000e+00 0.00000000e+00 
2.00000000e+00 5.00000000e+00 0.00000000e+00 
3.00000000e+00 5.00000000e+00 0.00000000e+00 
0.00000000e+00 5.33333349e+00 0.00000000e+00 
1.00000000e+00 5.33333349e+00 0.00000000e+00 
2.00000000e+00 5.33333349e+00 0.00000000e+00 
3.00000000e+00 5.33333349e+00 0.00000000e+00 
0.00000000e+00 5.66666651e+00 0.00000000e+00 
1.00000000e+00 5.66666651e+00 0.00000000e+00 
2.00000000e+00 5.66666651e+00 0.00000000e+00 
3.00000000e+00 5.66666651e+00 0.00000000e+00 
0.00000000e+00 6.00000000e+00 0.00000000e+00 
1.00000000e+00 6.00000000e+00 0.00000000e+00 
2.00000000e+00 6.00000000e+00 0.00000000e+00 
3.00000000e+00 6.00000000e+00 0.00000000e+00 

        </DataArray>
      </Points>
      <Cells>
        <DataArray type="Int32" Name="connectivity" format="ascii">
0 1 5 4
4 5 9 8
8 9 13 12
1 2 6 5
5 6 10 9
9 10 14 13
2 3 7 6
6 7 11 10
10 11 15 14

        </DataArray>
        <DataArray type="Int32" Name="offsets" format="ascii">
4 8 12 16 20 24 28 32 36 
        </DataArray>
        <DataArray type="UInt8" Name="types" format="ascii">
9 9 9 9 9 9 9 9 9 
        </DataArray>
      </Cells>
      <PointData>
        <DataArray type="Float64" Name="u">
          2.00000000e+02 1.97682732e+02 1.98233406e+02 1.93777914e+02 1.55555556e+02 1.52792013e+02 1.53508207e+02 1.47419627e+02 8.88888889e+01 8.66166363e+01 8.72387865e+01 8.06438227e+01 0.00000000e+00 0.00000000e+00 0.00000000e+00 0.00000000e+00 
        </DataArray>
        <DataArray type="Float64" Name="v">
          0.00000000e+00 -1.50110163e+00 -3.14727337e+00 -4.50989819e+00 0.00000000e+00 -5.97200426e-01 -1.68158734e+00 -2.72632530e+00 0.00000000e+00 -5.34319922e-01 -1.41386159e+00 -1.10716121e+00 0.00000000e+00 0.00000000e+00 0.00000000e+00 0.00000000e+00 
        </DataArray>
        <DataArray type="Float64" Name="p">
          3.71942915e+03 2.34827952e+03 9.77129894e+02 -3.94019735e+02 3.74649587e+03 2.38006785e+03 1.01363983e+03 -3.52788184e+02 3.77356258e+03 2.41185618e+03 1.05014977e+03 -3.11556634e+02 3.80062930e+03 2.44364451e+03 1.08665971e+03 -2.70325083e+02 
        </DataArray>
      </PointData>
    </Piece>
    <Piece NumberOfPoints="16" NumberOfCells="9">
      <Points>
        <DataArray type="Float64" NumberOfComponents="3" format="ascii">
          3.00000000e+00 0.00000000e+00 0.00000000e+00 
4.00000000e+00 0.00000000e+00 0.00000000e+00 
5.00000000e+00 0.00000000e+00 0.00000000e+00 
6.00000000e+00 0.00000000e+00 0.00000000e+00 
3.00000000e+00 3.33333343e-01 0.00000000e+00 
4.00000000e+00 3.33333343e-01 0.00000000e+00 
5.00000000e+00 3.33333343e-01 0.00000000e+00 
6.00000000e+00 3.33333343e-01 0.00000000e+00 
3.00000000e+00 6.66666687e-01 0.00000000e+00 
4.00000000e+00 6.66666687e-01 0.00000000e+00 
5.00000000e+00 6.66666687e-01 0.00000000e+00 
6.00000000e+00 6.66666687e-01 0.00000000e+00 
3.00000000e+00 1.00000000e+00 0.00000000e+00 
4.00000000e+00 1.00000000e+00 0.00000000e+00 
5.00000000e+00 1.00000000e+00 0.00000000e+00 
6.00000000e+00 1.00000000e+00 0.00000000e+00 

        </DataArray>
      </Points>
      <Cells>
        <DataArray type="Int32" Name="connectivity" format="ascii">
0 1 5 4
4 5 9 8
8 9 13 12
1 2 6 5
5 6 10 9
9 10 14 13
2 3 7 6
6 7 11 10
10 11 15 14

        </DataArray>
        <DataArray type="Int32" Name="offsets" format="ascii">
4 8 12 16 20 24 28 32 36 
        </DataArray>
        <DataArray type="UInt8" Name="types" format="ascii">
9 9 9 9 9 9 9 9 9 
        </DataArray>
      </Cells>
      <PointData>
        <DataArray type="Float64" Name="u">
          0.00000000e+00 0.00000000e+00 0.00000000e+00 0.00000000e+00 0.00000000e+00 -4.49870666e+00 -6.85485263e+00 -1.25896600e+01 0.00000000e+00 -7.60107426e+00 -1.19067185e+01 -2.09718252e+01 0.00000000e+00 -9.35896484e+00 -1.44183597e+01 -2.37428743e+01 
        </DataArray>
        <DataArray type="Float64" Name="v">
          0.00000000e+00 0.00000000e+00 0.00000000e+00 0.00000000e+00 0.00000000e+00 1.04214635e+00 1.10148340e+00 7.77371095e-01 0.00000000e+00 3.03385168e+00 2.97614403e+00 1.79337875e+00 0.00000000e+00 6.48034396e+00 6.19426595e+00 3.45194697e+00 
        </DataArray>
        <DataArray type="Float64" Name="p">
          -1.43627268e+03 -1.34418495e+03 -1.25209722e+03 -1.16000950e+03 -1.42091661e+03 -1.33059773e+03 -1.24027885e+03 -1.14995996e+03 -1.40556055e+03 -1.31701051e+03 -1.22846047e+03 -1.13991043e+03 -1.39020448e+03 -1.30342329e+03 -1.21664210e+03 -1.12986090e+03 
        </DataArray>
      </PointData>
    </Piece>
    <Piece NumberOfPoints="16" NumberOfCells="9">
      <Points>
        <DataArray type="Float64" NumberOfComponents="3" format="ascii">
          3.00000000e+00 1.00000000e+00 0.00000000e+00 
4.00000000e+00 1.00000000e+00 0.00000000e+00 
5.00000000e+00 1.00000000e+00 0.00000000e+00 
6.00000000e+00 1.00000000e+00 0.00000000e+00 
3.00000000e+00 1.33333337e+00 0.00000000e+00 
4.00000000e+00 1.33333337e+00 0.00000000e+00 
5.00000000e+00 1.33333337e+00 0.00000000e+00 
6.00000000e+00 1.33333337e+00 0.00000000e+00 
3.00000000e+00 1.66666663e+00 0.00000000e+00 
4.00000000e+00 1.66666663e+00 0.00000000e+00 
5.00000000e+00 1.66666663e+00 0.00000000e+00 
6.00000000e+00 1.66666663e+00 0.00000000e+00 
3.00000000e+00 2.00000000e+00 0.00000000e+00 
4.00000000e+00 2.00000000e+00 0.00000000e+00 
5.00000000e+00 2.00000000e+00 0.00000000e+00 
6.00000000e+00 2.00000000e+00 0.00000000e+00 

        </DataArray>
      </Points>
      <Cells>
        <DataArray type="Int32" Name="connectivity" format="ascii">
0 1 5 4
4 5 9 8
8 9 13 12
1 2 6 5
5 6 10 9
9 10 14 13
2 3 7 6
6 7 11 10
10 11 15 14

        </DataArray>
        <DataArray type="Int32" Name="offsets" format="ascii">
4 8 12 16 20 24 28 32 36 
        </DataArray>
        <DataArray type="UInt8" Name="types" format="ascii">
9 9 9 9 9 9 9 9 9 
        </DataArray>
      </Cells>
      <PointData>
        <DataArray type="Float64" Name="u">
          0.00000000e+00 -9.35896484e+00 -1.44183597e+01 -2.37428743e+01 0.00000000e+00 -9.76213151e+00 -1.38078013e+01 -2.06676191e+01 0.00000000e+00 -8.65803888e+00 -9.78319395e+00 -1.14679013e+01 0.00000000e+00 -5.45833401e+00 -1.82454935e+00 4.13965719e+00 
        </DataArray>
        <DataArray type="Float64" Name="v">
          0.00000000e+00 6.48034396e+00 6.19426595e+00 3.45194697e+00 0.00000000e+00 1.03513950e+01 9.09573263e+00 4.18500514e+00 0.00000000e+00 1.32304201e+01 1.07415230e+01 3.62667623e+00 0.00000000e+00 1.56851753e+01 1.07182707e+01 9.35364799e-01 
        </DataArray>
        <DataArray type="Float64" Name="p">
          -1.37905995e+03 -1.30359844e+03 -1.22813693e+03 -1.15267542e+03 -1.43527791e+03 -1.36738419e+03 -1.29949046e+03 -1.23159673e+03 -1.49149588e+03 -1.43116993e+03 -1.37084398e+03 -1.31051803e+03 -1.54771385e+03 -1.49495568e+03 -1.44219751e+03 -1.38943934e+03 
        </DataArray>
      </PointData>
    </Piece>
    <Piece NumberOfPoints="16" NumberOfCells="9">
      <Points>
        <DataArray type="Float64" NumberOfComponents="3" format="ascii">
          3.00000000e+00 2.00000000e+00 0.00000000e+00 
4.00000000e+00 2.00000000e+00 0.00000000e+00 
5.00000000e+00 2.00000000e+00 0.00000000e+00 
6.00000000e+00 2.00000000e+00 0.00000000e+00 
3.00000000e+00 2.33333325e+00 0.00000000e+00 
4.00000000e+00 2.33333325e+00 0.00000000e+00 
5.00000000e+00 2.33333325e+00 0.00000000e+00 
6.00000000e+00 2.33333325e+00 0.00000000e+00 
3.00000000e+00 2.66666675e+00 0.00000000e+00 
4.00000000e+00 2.66666675e+00 0.00000000e+00 
5.00000000e+00 2.66666675e+00 0.00000000e+00 
6.00000000e+00 2.66666675e+00 0.00000000e+00 
3.00000000e+00 3.00000000e+00 0.00000000e+00 
4.00000000e+00 3.00000000e+00 0.00000000e+00 
5.00000000e+00 3.00000000e+00 0.00000000e+00 
6.00000000e+00 3.00000000e+00 0.00000000e+00 

        </DataArray>
      </Points>
      <Cells>
        <DataArray type="Int32" Name="connectivity" format="ascii">
0 1 5 4
4 5 9 8
8 9 13 12
1 2 6 5
5 6 10 9
9 10 14 13
2 3 7 6
6 7 11 10
10 11 15 14

        </DataArray>
        <DataArray type="Int32" Name="offsets" format="ascii">
4 8 12 16 20 24 28 32 36 
        </DataArray>
        <DataArray type="UInt8" Name="types" format="ascii">
9 9 9 9 9 9 9 9 9 
        </DataArray>
      </Cells>
      <PointData>
        <DataArray type="Float64" Name="u">
          0.00000000e+00 -5.45833401e+00 -1.82454935e+00 4.13965719e+00 0.00000000e+00 1.31530269e+00 1.07240012e+01 2.75463217e+01 0.00000000e+00 1.81045394e+01 3.30810453e+01 5.77033512e+01 0.00000000e+00 5.78312696e+01 7.14699895e+01 9.69996851e+01 
        </DataArray>
        <DataArray type="Float64" Name="v">
          0.00000000e+00 1.56851753e+01 1.07182707e+01 9.35364799e-01 0.00000000e+00 1.62114434e+01 6.84241672e+00 -4.83891201e+00 0.00000000e+00 1.14199320e+01 2.05372142e+00 -9.02389580e+00 0.00000000e+00 -1.50899145e+00 -7.19142943e+00 -1.27158215e+01 
        </DataArray>
        <DataArray type="Float64" Name="p">
          -1.50677391e+03 -1.50482997e+03 -1.50288603e+03 -1.50094209e+03 -1.76352668e+03 -1.61190492e+03 -1.46028316e+03 -1.30866141e+03 -2.02027944e+03 -1.71897987e+03 -1.41768029e+03 -1.11638072e+03 -2.27703221e+03 -1.82605482e+03 -1.37507743e+03 -9.24100033e+02 
        </DataArray>
      </PointData>
    </Piece>
    <Piece NumberOfPoints="16" NumberOfCells="9">
      <Points>
        <DataArray type="Float64" NumberOfComponents="3" format="ascii">
          3.00000000e+00 3.00000000e+00 0.00000000e+00 
4.00000000e+00 3.00000000e+00 0.00000000e+00 
5.00000000e+00 3.00000000e+00 0.00000000e+00 
6.00000000e+00 3.00000000e+00 0.00000000e+00 
3.00000000e+00 3.33333325e+00 0.00000000e+00 
4.00000000e+00 3.33333325e+00 0.00000000e+00 
5.00000000e+00 3.33333325e+00 0.00000000e+00 
6.00000000e+00 3.33333325e+00 0.00000000e+00 
3.00000000e+00 3.66666675e+00 0.00000000e+00 
4.00000000e+00 3.66666675e+00 0.00000000e+00 
5.00000000e+00 3.66666675e+00 0.00000000e+00 
6.00000000e+00 3.66666675e+00 0.00000000e+00 
3.00000000e+00 4.00000000e+00 0.00000000e+00 
4.00000000e+00 4.00000000e+00 0.00000000e+00 
5.00000000e+00 4.00000000e+00 0.00000000e+00 
6.00000000e+00 4.00000000e+00 0.00000000e+00 

        </DataArray>
      </Points>
      <Cells>
        <DataArray type="Int32" Name="connectivity" format="ascii">
0 1 5 4
4 5 9 8
8 9 13 12
1 2 6 5
5 6 10 9
9 10 14 13
2 3 7 6
6 7 11 10
10 11 15 14

        </DataArray>
        <DataArray type="Int32" Name="offsets" format="ascii">
4 8 12 16 20 24 28 32 36 
        </DataArray>
        <DataArray type="UInt8" Name="types" format="ascii">
9 9 9 9 9 9 9 9 9 
        </DataArray>
      </Cells>
      <PointData>
        <DataArray type="Float64" Name="u">
          0.00000000e+00 5.78312696e+01 7.14699895e+01 9.69996851e+01 9.94762538e+01 1.09720896e+02 1.23054586e+02 1.35746036e+02 1.63820826e+02 1.63072241e+02 1.69631809e+02 1.72827272e+02 2.04911420e+02 1.99153199e+02 2.01614371e+02 1.96434523e+02 
        </DataArray>
        <DataArray type="Float64" Name="v">
          0.00000000e+00 -1.50899145e+00 -7.19142943e+00 -1.27158215e+01 -3.73433749e+00 -1.25972927e+01 -1.45730059e+01 -1.45224060e+01 -3.58378188e+00 -1.30988451e+01 -1.64939257e+01 -1.64764800e+01 -5.58799950e+00 -1.30116523e+01 -1.66233143e+01 -1.91080087e+01 
        </DataArray>
        <DataArray type="Float64" Name="p">
          -2.41964737e+03 -1.87980072e+03 -1.33995407e+03 -8.00107426e+02 -1.83220872e+03 -1.53039548e+03 -1.22858224e+03 -9.26768997e+02 -1.24477006e+03 -1.18099023e+03 -1.11721040e+03 -1.05343057e+03 -6.57331413e+02 -8.31584988e+02 -1.00583856e+03 -1.18009214e+03 
        </DataArray>
      </PointData>
    </Piece>
    <Piece NumberOfPoints="16" NumberOfCells="9">
      <Points>
        <DataArray type="Float64" NumberOfComponents="3" format="ascii">
          3.00000000e+00 4.00000000e+00 0.00000000e+00 
4.00000000e+00 4.00000000e+00 0.00000000e+00 
5.00000000e+00 4.00000000e+00 0.00000000e+00 
6.00000000e+00 4.00000000e+00 0.00000000e+00 
3.00000000e+00 4.33333349e+00 0.00000000e+00 
4.00000000e+00 4.33333349e+00 0.00000000e+00 
5.00000000e+00 4.33333349e+00 0.00000000e+00 
6.00000000e+00 4.33333349e+00 0.00000000e+00 
3.00000000e+00 4.66666651e+00 0.00000000e+00 
4.00000000e+00 4.66666651e+00 0.00000000e+00 
5.00000000e+00 4.66666651e+00 0.00000000e+00 
6.00000000e+00 4.66666651e+00 0.00000000e+00 
3.00000000e+00 5.00000000e+00 0.00000000e+00 
4.00000000e+00 5.00000000e+00 0.00000000e+00 
5.00000000e+00 5.00000000e+00 0.00000000e+00 
6.00000000e+00 5.00000000e+00 0.00000000e+00 

        </DataArray>
      </Points>
      <Cells>
        <DataArray type="Int32" Name="connectivity" format="ascii">
0 1 5 4
4 5 9 8
8 9 13 12
1 2 6 5
5 6 10 9
9 10 14 13
2 3 7 6
6 7 11 10
10 11 15 14

        </DataArray>
        <DataArray type="Int32" Name="offsets" format="ascii">
4 8 12 16 20 24 28 32 36 
        </DataArray>
        <DataArray type="UInt8" Name="types" format="ascii">
9 9 9 9 9 9 9 9 9 
        </DataArray>
      </Cells>
      <PointData>
        <DataArray type="Float64" Name="u">
          2.04911420e+02 1.99153199e+02 2.01614371e+02 1.96434523e+02 2.23386075e+02 2.15074939e+02 2.12781437e+02 2.03241886e+02 2.19460506e+02 2.09345133e+02 2.03892456e+02 1.90869159e+02 1.93777914e+02 1.83345378e+02 1.76348659e+02 1.62185866e+02 
        </DataArray>
        <DataArray type="Float64" Name="v">
          -5.58799950e+00 -1.30116523e+01 -1.66233143e+01 -1.91080087e+01 -5.44874368e+00 -9.71478704e+00 -1.43699032e+01 -1.84814786e+01 -5.66046026e+00 -8.73646962e+00 -1.17814898e+01 -1.60028859e+01 -4.50989819e+00 -3.90683165e+00 -7.51506231e+00 -1.27334767e+01 
        </DataArray>
        <DataArray type="Float64" Name="p">
          -4.63681948e+02 -7.00630090e+02 -9.37578232e+02 -1.17452637e+03 -1.96460076e+02 -4.03809732e+02 -6.11159387e+02 -8.18509043e+02 7.07617967e+01 -1.06989373e+02 -2.84740543e+02 -4.62491713e+02 3.37983669e+02 1.89830985e+02 4.16783014e+01 -1.06474383e+02 
        </DataArray>
      </PointData>
    </Piece>
    <Piece NumberOfPoints="16" NumberOfCells="9">
      <Points>
        <DataArray type="Float64" NumberOfComponents="3" format="ascii">
          3.00000000e+00 5.00000000e+00 0.00000000e+00 
4.00000000e+00 5.00000000e+00 0.00000000e+00 
5.00000000e+00 5.00000000e+00 0.00000000e+00 
6.00000000e+00 5.00000000e+00 0.00000000e+00 
3.00000000e+00 5.33333349e+00 0.00000000e+00 
4.00000000e+00 5.33333349e+00 0.00000000e+00 
5.00000000e+00 5.33333349e+00 0.00000000e+00 
6.00000000e+00 5.33333349e+00 0.00000000e+00 
3.00000000e+00 5.66666651e+00 0.00000000e+00 
4.00000000e+00 5.66666651e+00 0.00000000e+00 
5.00000000e+00 5.66666651e+00 0.00000000e+00 
6.00000000e+00 5.66666651e+00 0.00000000e+00 
3.00000000e+00 6.00000000e+00 0.00000000e+00 
4.00000000e+00 6.00000000e+00 0.00000000e+00 
5.00000000e+00 6.00000000e+00 0.00000000e+00 
6.00000000e+00 6.00000000e+00 0.00000000e+00 

        </DataArray>
      </Points>
      <Cells>
        <DataArray type="Int32" Name="connectivity" format="ascii">
0 1 5 4
4 5 9 8
8 9 13 12
1 2 6 5
5 6 10 9
9 10 14 13
2 3 7 6
6 7 11 10
10 11 15 14

        </DataArray>
        <DataArray type="Int32" Name="offsets" format="ascii">
4 8 12 16 20 24 28 32 36 
        </DataArray>
        <DataArray type="UInt8" Name="types" format="ascii">
9 9 9 9 9 9 9 9 9 
        </DataArray>
      </Cells>
      <PointData>
        <DataArray type="Float64" Name="u">
          1.93777914e+02 1.83345378e+02 1.76348659e+02 1.62185866e+02 1.47419627e+02 1.38861857e+02 1.32823065e+02 1.22333691e+02 8.06438227e+01 8.40121828e+01 8.28354869e+01 8.08879429e+01 0.00000000e+00 3.94985430e+01 4.00724148e+01 4.95959163e+01 
        </DataArray>
        <DataArray type="Float64" Name="v">
          -4.50989819e+00 -3.90683165e+00 -7.51506231e+00 -1.27334767e+01 -2.72632530e+00 1.06028162e-01 -2.65080140e+00 -8.58389785e+00 -1.10716121e+00 -4.05972934e-02 -3.52266297e+00 -6.71079377e+00 0.00000000e+00 -5.90683292e+00 -4.16526595e+00 -2.45223316e+00 
        </DataArray>
        <DataArray type="Float64" Name="p">
          2.20232323e+02 1.66972790e+02 1.13713258e+02 6.04537257e+01 -1.22126990e+01 9.50654238e+01 2.02343547e+02 3.09621669e+02 -2.44657721e+02 2.31580573e+01 2.90973835e+02 5.58789613e+02 -4.77102742e+02 -4.87493091e+01 3.79604124e+02 8.07957557e+02 
        </DataArray>
      </PointData>
    </Piece>
    <Piece NumberOfPoints="16" NumberOfCells="9">
      <Points>
        <DataArray type="Float64" NumberOfComponents="3" format="ascii">
          3.00000000e+00 6.00000000e+00 0.00000000e+00 
4.00000000e+00 6.00000000e+00 0.00000000e+00 
5.00000000e+00 6.00000000e+00 0.00000000e+00 
6.00000000e+00 6.00000000e+00 0.00000000e+00 
3.00000000e+00 6.33333349e+00 0.00000000e+00 
4.00000000e+00 6.33333349e+00 0.00000000e+00 
5.00000000e+00 6.33333349e+00 0.00000000e+00 
6.00000000e+00 6.33333349e+00 0.00000000e+00 
3.00000000e+00 6.66666651e+00 0.00000000e+00 
4.00000000e+00 6.66666651e+00 0.00000000e+00 
5.00000000e+00 6.66666651e+00 0.00000000e+00 
6.00000000e+00 6.66666651e+00 0.00000000e+00 
3.00000000e+00 7.00000000e+00 0.00000000e+00 
4.00000000e+00 7.00000000e+00 0.00000000e+00 
5.00000000e+00 7.00000000e+00 0.00000000e+00 
6.00000000e+00 7.00000000e+00 0.00000000e+00 

        </DataArray>
      </Points>
      <Cells>
        <DataArray type="Int32" Name="connectivity" format="ascii">
0 1 5 4
4 5 9 8
8 9 13 12
1 2 6 5
5 6 10 9
9 10 14 13
2 3 7 6
6 7 11 10
10 11 15 14

        </DataArray>
        <DataArray type="Int32" Name="offsets" format="ascii">
4 8 12 16 20 24 28 32 36 
        </DataArray>
        <DataArray type="UInt8" Name="types" format="ascii">
9 9 9 9 9 9 9 9 9 
        </DataArray>
      </Cells>
      <PointData>
        <DataArray type="Float64" Name="u">
          0.00000000e+00 3.94985430e+01 4.00724148e+01 4.95959163e+01 0.00000000e+00 9.84287347e+00 1.43821596e+01 2.22085782e+01 0.00000000e+00 -1.98561287e+00 2.94618009e-01 3.42650862e+00 0.00000000e+00 -6.43499974e+00 -7.16009770e+00 -9.12343790e+00 
        </DataArray>
        <DataArray type="Float64" Name="v">
          0.00000000e+00 -5.90683292e+00 -4.16526595e+00 -2.45223316e+00 0.00000000e+00 -1.34011753e+01 -7.59725929e+00 -1.95537057e+00 0.00000000e+00 -1.52688265e+01 -8.41126241e+00 -2.63584710e+00 0.00000000e+00 -1.36071455e+01 -9.01812797e+00 -3.91862227e+00 
        </DataArray>
        <DataArray type="Float64" Name="p">
          -4.45337890e+02 -9.89026762e+01 2.47532538e+02 5.93967752e+02 -2.44254259e+02 3.10514804e+00 2.50464555e+02 4.97823961e+02 -4.31706271e+01 1.05112972e+02 2.53396572e+02 4.01680171e+02 1.57913004e+02 2.07120796e+02 2.56328589e+02 3.05536381e+02 
        </DataArray>
      </PointData>
    </Piece>
    <Piece NumberOfPoints="16" NumberOfCells="9">
      <Points>
        <DataArray type="Float64" NumberOfComponents="3" format="ascii">
          3.00000000e+00 7.00000000e+00 0.00000000e+00 
4.00000000e+00 7.00000000e+00 0.00000000e+00 
5.00000000e+00 7.00000000e+00 0.00000000e+00 
6.00000000e+00 7.00000000e+00 0.00000000e+00 
3.00000000e+00 7.33333349e+00 0.00000000e+00 
4.00000000e+00 7.33333349e+00 0.00000000e+00 
5.00000000e+00 7.33333349e+00 0.00000000e+00 
6.00000000e+00 7.33333349e+00 0.00000000e+00 
3.00000000e+00 7.66666651e+00 0.00000000e+00 
4.00000000e+00 7.66666651e+00 0.00000000e+00 
5.00000000e+00 7.66666651e+00 0.00000000e+00 
6.00000000e+00 7.66666651e+00 0.00000000e+00 
3.00000000e+00 8.00000000e+00 0.00000000e+00 
4.00000000e+00 8.00000000e+00 0.00000000e+00 
5.00000000e+00 8.00000000e+00 0.00000000e+00 
6.00000000e+00 8.00000000e+00 0.00000000e+00 

        </DataArray>
      </Points>
      <Cells>
        <DataArray type="Int32" Name="connectivity" format="ascii">
0 1 5 4
4 5 9 8
8 9 13 12
1 2 6 5
5 6 10 9
9 10 14 13
2 3 7 6
6 7 11 10
10 11 15 14

        </DataArray>
        <DataArray type="Int32" Name="offsets" format="ascii">
4 8 12 16 20 24 28 32 36 
        </DataArray>
        <DataArray type="UInt8" Name="types" format="ascii">
9 9 9 9 9 9 9 9 9 
        </DataArray>
      </Cells>
      <PointData>
        <DataArray type="Float64" Name="u">
          0.00000000e+00 -6.43499974e+00 -7.16009770e+00 -9.12343790e+00 0.00000000e+00 -8.05045175e+00 -1.11312047e+01 -1.58236084e+01 0.00000000e+00 -8.10080387e+00 -1.23352173e+01 -1.84540032e+01 0.00000000e+00 -7.17528576e+00 -1.14234080e+01 -1.77454686e+01 
        </DataArray>
        <DataArray type="Float64" Name="v">
          0.00000000e+00 -1.36071455e+01 -9.01812797e+00 -3.91862227e+00 0.00000000e+00 -1.07565703e+01 -7.73523248e+00 -3.92920024e+00 0.00000000e+00 -8.09233670e+00 -6.08654278e+00 -3.32818369e+00 0.00000000e+00 -4.85747890e+00 -3.91194230e+00 -2.25226533e+00 
        </DataArray>
        <DataArray type="Float64" Name="p">
          1.40380504e+02 2.17159819e+02 2.93939135e+02 3.70718450e+02 1.99149205e+02 2.65295367e+02 3.31441529e+02 3.97587691e+02 2.57917906e+02 3.13430915e+02 3.68943924e+02 4.24456933e+02 3.16686608e+02 3.61566463e+02 4.06446318e+02 4.51326174e+02 
        </DataArray>
      </PointData>
    </Piece>
    <Piece NumberOfPoints="16" NumberOfCells="9">
      <Points>
        <DataArray type="Float64" NumberOfComponents="3" format="ascii">
          3.00000000e+00 8.00000000e+00 0.00000000e+00 
4.00000000e+00 8.00000000e+00 0.00000000e+00 
5.00000000e+00 8.00000000e+00 0.00000000e+00 
6.00000000e+00 8.00000000e+00 0.00000000e+00 
3.00000000e+00 8.33333302e+00 0.00000000e+00 
4.00000000e+00 8.33333302e+00 0.00000000e+00 
5.00000000e+00 8.33333302e+00 0.00000000e+00 
6.00000000e+00 8.33333302e+00 0.00000000e+00 
3.00000000e+00 8.66666698e+00 0.00000000e+00 
4.00000000e+00 8.66666698e+00 0.00000000e+00 
5.00000000e+00 8.66666698e+00 0.00000000e+00 
6.00000000e+00 8.66666698e+00 0.00000000e+00 
3.00000000e+00 9.00000000e+00 0.00000000e+00 
4.00000000e+00 9.00000000e+00 0.00000000e+00 
5.00000000e+00 9.00000000e+00 0.00000000e+00 
6.00000000e+00 9.00000000e+00 0.00000000e+00 

        </DataArray>
      </Points>
      <Cells>
        <DataArray type="Int32" Name="connectivity" format="ascii">
0 1 5 4
4 5 9 8
8 9 13 12
1 2 6 5
5 6 10 9
9 10 14 13
2 3 7 6
6 7 11 10
10 11 15 14

        </DataArray>
        <DataArray type="Int32" Name="offsets" format="ascii">
4 8 12 16 20 24 28 32 36 
        </DataArray>
        <DataArray type="UInt8" Name="types" format="ascii">
9 9 9 9 9 9 9 9 9 
        </DataArray>
      </Cells>
      <PointData>
        <DataArray type="Float64" Name="u">
          0.00000000e+00 -7.17528576e+00 -1.14234080e+01 -1.77454686e+01 0.00000000e+00 -5.52610793e+00 -8.83772658e+00 -1.43049331e+01 0.00000000e+00 -3.15912976e+00 -4.90507293e+00 -8.34043963e+00 0.00000000e+00 0.00000000e+00 0.00000000e+00 0.00000000e+00 
        </DataArray>
        <DataArray type="Float64" Name="v">
          0.00000000e+00 -4.85747890e+00 -3.91194230e+00 -2.25226533e+00 0.00000000e+00 -2.21995253e+00 -1.89907002e+00 -1.05451669e+00 0.00000000e+00 -7.33470296e-01 -6.77921209e-01 -3.59467007e-01 0.00000000e+00 0.00000000e+00 0.00000000e+00 0.00000000e+00 
        </DataArray>
        <DataArray type="Float64" Name="p">
          3.07372159e+02 3.56852079e+02 4.06331998e+02 4.55811918e+02 2.95392780e+02 3.46141401e+02 3.96890023e+02 4.47638645e+02 2.83413400e+02 3.35430724e+02 3.87448048e+02 4.39465372e+02 2.71434021e+02 3.24720047e+02 3.78006073e+02 4.31292099e+02 
        </DataArray>
      </PointData>
    </Piece>
    <Piece NumberOfPoints="16" NumberOfCells="9">
      <Points>
        <DataArray type="Float64" NumberOfComponents="3" format="ascii">
          6.00000000e+00 0.00000000e+00 0.00000000e+00 
7.00000000e+00 0.00000000e+00 0.00000000e+00 
8.00000000e+00 0.00000000e+00 0.00000000e+00 
9.00000000e+00 0.00000000e+00 0.00000000e+00 
6.00000000e+00 3.33333343e-01 0.00000000e+00 
7.00000000e+00 3.33333343e-01 0.00000000e+00 
8.00000000e+00 3.33333343e-01 0.00000000e+00 
9.00000000e+00 3.33333343e-01 0.00000000e+00 
6.00000000e+00 6.66666687e-01 0.00000000e+00 
7.00000000e+00 6.66666687e-01 0.00000000e+00 
8.00000000e+00 6.66666687e-01 0.00000000e+00 
9.00000000e+00 6.66666687e-01 0.00000000e+00 
6.00000000e+00 1.00000000e+00 0.00000000e+00 
7.00000000e+00 1.00000000e+00 0.00000000e+00 
8.00000000e+00 1.00000000e+00 0.00000000e+00 
9.00000000e+00 1.00000000e+00 0.00000000e+00 

        </DataArray>
      </Points>
      <Cells>
        <DataArray type="Int32" Name="connectivity" format="ascii">
0 1 5 4
4 5 9 8
8 9 13 12
1 2 6 5
5 6 10 9
9 10 14 13
2 3 7 6
6 7 11 10
10 11 15 14

        </DataArray>
        <DataArray type="Int32" Name="offsets" format="ascii">
4 8 12 16 20 24 28 32 36 
        </DataArray>
        <DataArray type="UInt8" Name="types" format="ascii">
9 9 9 9 9 9 9 9 9 
        </DataArray>
      </Cells>
      <PointData>
        <DataArray type="Float64" Name="u">