<?xml version="1.0"?>
<VTKFile type="UnstructuredGrid" version="0.1" byte_order="LittleEndian">
  <UnstructuredGrid>
    <Piece NumberOfPoints="16" NumberOfCells="9">
      <Points>
        <DataArray type="Float64" NumberOfComponents="3" format="ascii">
          0.00000000e+00 3.00000000e+00 0.00000000e+00 
1.00000000e+00 3.00000000e+00 0.00000000e+00 
2.00000000e+00 3.00000000e+00 0.00000000e+00 
3.00000000e+00 3.00000000e+00 0.00000000e+00 
0.00000000e+00 3.33333325e+00 0.00000000e+00 
1.00000000e+00 3.33333325e+00 0.00000000e+00 
2.00000000e+00 3.33333325e+00 0.00000000e+00 
3.00000000e+00 3.33333325e+00 0.00000000e+00 
0.00000000e+00 3.66666675e+00 0.00000000e+00 
1.00000000e+00 3.66666675e+00 0.00000000e+00 
2.00000000e+00 3.66666675e+00 0.00000000e+00 
3.00000000e+00 3.66666675e+00 0.00000000e+00 
0.00000000e+00 4.00000000e+00 0.00000000e+00 
1.00000000e+00 4.00000000e+00 0.00000000e+00 
2.00000000e+00 4.00000000e+00 0.00000000e+00 
3.00000000e+00 4.00000000e+00 0.00000000e+00 

        </DataArray>
      </Points>
      <Cells>
        <DataArray type="Int32" Name="connectivity" format="ascii">
0 1 5 4
4 5 9 8
8 9 13 12
1 2 6 5
5 6 10 9
9 10 14 13
2 3 7 6
6 7 11 10
10 11 15 14

        </DataArray>
        <DataArray type="Int32" Name="offsets" format="ascii">
4 8 12 16 20 24 28 32 36 
        </DataArray>
        <DataArray type="UInt8" Name="types" format="ascii">
9 9 9 9 9 9 9 9 9 
        </DataArray>
      </Cells>
      <PointData>
        <DataArray type="Float64" Name="u">
          0.00000000e+00 0.00000000e+00 0.00000000e+00 0.00000000e+00 8.88888889e+01 9.30040976e+01 9.13380873e+01 1.02053771e+02 1.55555556e+02 1.59164659e+02 1.58550424e+02 1.65571406e+02 2.00000000e+02 2.02066446e+02 2.02242037e+02 2.06381532e+02 
        </DataArray>
        <DataArray type="Float64" Name="v">
          0.00000000e+00 0.00000000e+00 0.00000000e+00 0.00000000e+00 0.00000000e+00 -1.08585345e+00 -1.61977786e+00 -4.15577236e+00 0.00000000e+00 -8.90735722e-01 -2.23273256e+00 -4.10415808e+00 0.00000000e+00 -2.23238368e+00 -4.00517869e+00 -6.59522340e+00 
        </DataArray>
        <DataArray type="Float64" Name="p">
          1.00685005e+03 -1.29228797e+02 -1.26530764e+03 -2.40138649e+03 1.02555324e+03 -8.99970136e+01 -1.20554726e+03 -2.32109752e+03 1.04425643e+03 -5.07652299e+01 -1.14578689e+03 -2.24080855e+03 1.06295962e+03 -1.15334462e+01 -1.08602651e+03 -2.16051958e+03 
        </DataArray>
      </PointData>
    </Piece>
    <Piece NumberOfPoints="16" NumberOfCells="9">
      <Points>
        <DataArray type="Float64" NumberOfComponents="3" format="ascii">
          0.00000000e+00 4.00000000e+00 0.00000000e+00 
1.00000000e+00 4.00000000e+00 0.00000000e+00 
2.00000000e+00 4.00000000e+00 0.00000000e+00 
3.00000000e+00 4.00000000e+00 0.00000000e+00 
0.00000000e+00 4.33333349e+00 0.00000000e+00 
1.00000000e+00 4.33333349e+00 0.00000000e+00 
2.00000000e+00 4.33333349e+00 0.00000000e+00 
3.00000000e+00 4.33333349e+00 0.00000000e+00 
0.00000000e+00 4.66666651e+00 0.00000000e+00 
1.00000000e+00 4.66666651e+00 0.00000000e+00 
2.00000000e+00 4.66666651e+00 0.00000000e+00 
3.00000000e+00 4.66666651e+00 0.00000000e+00 
0.00000000e+00 5.00000000e+00 0.00000000e+00 
1.00000000e+00 5.00000000e+00 0.00000000e+00 
2.00000000e+00 5.00000000e+00 0.00000000e+00 
3.00000000e+00 5.00000000e+00 0.00000000e+00 

        </DataArray>
      </Points>
      <Cells>
        <DataArray type="Int32" Name="connectivity" format="ascii">
0 1 5 4
4 5 9 8
8 9 13 12
1 2 6 5
5 6 10 9
9 10 14 13
2 3 7 6
6 7 11 10
10 11 15 14

        </DataArray>
        <DataArray type="Int32" Name="offsets" format="ascii">
4 8 12 16 20 24 28 32 36 
        </DataArray>
        <DataArray type="UInt8" Name="types" format="ascii">
9 9 9 9 9 9 9 9 9 
        </DataArray>
      </Cells>
      <PointData>
        <DataArray type="Float64" Name="u">
          2.00000000e+02 2.02066446e+02 2.02242037e+02 2.06381532e+02 2.22222222e+02 2.22803169e+02 2.22916534e+02 2.24006825e+02 2.22222222e+02 2.21151936e+02 2.21165332e+02 2.19255220e+02 2.00000000e+02 1.97493365e+02 1.97663789e+02 1.92718919e+02 
        </DataArray>
        <DataArray type="Float64" Name="v">
          0.00000000e+00 -2.23238368e+00 -4.00517869e+00 -6.59522340e+00 0.00000000e+00 -2.56748974e+00 -4.79483768e+00 -6.62613636e+00 0.00000000e+00 -2.59721033e+00 -4.69883330e+00 -6.78660566e+00 0.00000000e+00 -2.04478769e+00 -4.01157611e+00 -5.65656956e+00 
        </DataArray>
        <DataArray type="Float64" Name="p">
          1.08990388e+03 1.88150285e+01 -1.05227382e+03 -2.12336267e+03 1.28475607e+03 1.96874117e+02 -8.91007832e+02 -1.97888978e+03 1.47960826e+03 3.74933206e+02 -7.29741845e+02 -1.83441690e+03 1.67446045e+03 5.52992294e+02 -5.68475858e+02 -1.68994401e+03 
        </DataArray>
      </PointData>
    </Piece>
    <Piece NumberOfPoints="16" NumberOfCells="9">
      <Points>
        <DataArray type="Float64" NumberOfComponents="3" format="ascii">
          0.00000000e+00 5.00000000e+00 0.00000000e+00 
1.00000000e+00 5.00000000e+00 0.00000000e+00 
2.00000000e+00 5.00000000e+00 0.00000000e+00 
3.00000000e+00 5.00000000e+00 0.00000000e+00 
0.00000000e+00 5.33333349e+00 0.00000000e+00 
1.00000000e+00 5.33333349e+00 0.00000000e+00 
2.00000000e+00 5.33333349e+00 0.00000000e+00 
3.00000000e+00 5.33333349e+00 0.00000000e+00 
0.00000000e+00 5.66666651e+00 0.00000000e+00 
1.00000000e+00 5.66666651e+00 0.00000000e+00 
2.00000000e+00 5.66666651e+00 0.00000000e+00 
3.00000000e+00 5.66666651e+00 0.00000000e+00 
0.00000000e+00 6.00000000e+00 0.00000000e+00 
1.00000000e+00 6.00000000e+00 0.00000000e+00 
2.00000000e+00 6.00000000e+00 0.00000000e+00 
3.00000000e+00 6.00000000e+00 0.00000000e+00 

        </DataArray>
      </Points>
      <Cells>
        <DataArray type="Int32" Name="connectivity" format="ascii">
0 1 5 4
4 5 9 8
8 9 13 12
1 2 6 5
5 6 10 9
9 10 14 13
2 3 7 6
6 7 11 10
10 11 15 14

        </DataArray>
        <DataArray type="Int32" Name="offsets" format="ascii">
4 8 12 16 20 24 28 32 36 
        </DataArray>
        <DataArray type="UInt8" Name="types" format="ascii">
9 9 9 9 9 9 9 9 9 
        </DataArray>
      </Cells>
      <PointData>
        <DataArray type="Float64" Name="u">
          2.00000000e+02 1.97493365e+02 1.97663789e+02 1.92718919e+02 1.55555556e+02 1.52142169e+02 1.52703725e+02 1.45474387e+02 8.88888889e+01 8.56429318e+01 8.64398443e+01 7.75714235e+01 0.00000000e+00 0.00000000e+00 0.00000000e+00 0.00000000e+00 
        </DataArray>
        <DataArray type="Float64" Name="v">
          0.00000000e+00 -2.04478769e+00 -4.01157611e+00 -5.65656956e+00 0.00000000e+00 -8.24193169e-01 -2.11271906e+00 -3.53926166e+00 0.00000000e+00 -8.48555791e-01 -1.86207320e+00 -1.95972009e+00 0.00000000e+00 0.00000000e+00 0.00000000e+00 0.00000000e+00 
        </DataArray>
        <DataArray type="Float64" Name="p">
          1.68494820e+03 5.78197598e+02 -5.28553003e+02 -1.63530360e+03 1.71951869e+03 6.19220769e+02 -4.81077155e+02 -1.58137508e+03 1.75408919e+03 6.60243940e+02 -4.33601308e+02 -1.52744656e+03 1.78865968e+03 7.01267111e+02 -3.86125460e+02 -1.47351803e+03 
        </DataArray>
      </PointData>
    </Piece>
    <Piece NumberOfPoints="16" NumberOfCells="9">
      <Points>
        <DataArray type="Float64" NumberOfComponents="3" format="ascii">
          3.00000000e+00 0.00000000e+00 0.00000000e+00 
4.00000000e+00 0.00000000e+00 0.00000000e+00 
5.00000000e+00 0.00000000e+00 0.00000000e+00 
6.00000000e+00 0.00000000e+00 0.00000000e+00 
3.00000000e+00 3.33333343e-01 0.00000000e+00 
4.00000000e+00 3.33333343e-01 0.00000000e+00 
5.00000000e+00 3.33333343e-01 0.00000000e+00 
6.00000000e+00 3.33333343e-01 0.00000000e+00 
3.00000000e+00 6.66666687e-01 0.00000000e+00 
4.00000000e+00 6.66666687e-01 0.00000000e+00 
5.00000000e+00 6.66666687e-01 0.00000000e+00 
6.00000000e+00 6.66666687e-01 0.00000000e+00 
3.00000000e+00 1.00000000e+00 0.00000000e+00 
4.00000000e+00 1.00000000e+00 0.00000000e+00 
5.00000000e+00 1.00000000e+00 0.00000000e+00 
6.00000000e+00 1.00000000e+00 0.00000000e+00 

        </DataArray>
      </Points>
      <Cells>
        <DataArray type="Int32" Name="connectivity" format="ascii">
0 1 5 4
4 5 9 8
8 9 13 12
1 2 6 5
5 6 10 9
9 10 14 13
2 3 7 6
6 7 11 10
10 11 15 14

        </DataArray>
        <DataArray type="Int32" Name="offsets" format="ascii">
4 8 12 16 20 24 28 32 36 
        </DataArray>
        <DataArray type="UInt8" Name="types" format="ascii">
9 9 9 9 9 9 9 9 9 
        </DataArray>
      </Cells>
      <PointData>
        <DataArray type="Float64" Name="u">
          0.00000000e+00 0.00000000e+00 0.00000000e+00 0.00000000e+00 0.00000000e+00 -3.84392209e+00 -6.42840791e+00 -1.15906511e+01 0.00000000e+00 -6.64969647e+00 -1.14045877e+01 -2.01967166e+01 0.00000000e+00 -8.31701878e+00 -1.41355636e+01 -2.34642410e+01 
        </DataArray>
        <DataArray type="Float64" Name="v">
          0.00000000e+00 0.00000000e+00 0.00000000e+00 0.00000000e+00 0.00000000e+00 9.35140597e-01 9.86818283e-01 7.90965755e-01 0.00000000e+00 2.75793889e+00 2.78885174e+00 1.87911022e+00 0.00000000e+00 5.94395543e+00 6.05534541e+00 3.61087881e+00 
        </DataArray>
        <DataArray type="Float64" Name="p">
          -2.90957380e+03 -2.85782559e+03 -2.80607738e+03 -2.75432917e+03 -2.89916841e+03 -2.84751197e+03 -2.79585552e+03 -2.74419907e+03 -2.88876302e+03 -2.83719834e+03 -2.78563366e+03 -2.73406898e+03 -2.87835763e+03 -2.82688472e+03 -2.77541180e+03 -2.72393888e+03 
        </DataArray>
      </PointData>
    </Piece>
    <Piece NumberOfPoints="16" NumberOfCells="9">
      <Points>
        <DataArray type="Float64" NumberOfComponents="3" format="ascii">
          3.00000000e+00 1.00000000e+00 0.00000000e+00 
4.00000000e+00 1.00000000e+00 0.00000000e+00 
5.00000000e+00 1.00000000e+00 0.00000000e+00 
6.00000000e+00 1.00000000e+00 0.00000000e+00 
3.00000000e+00 1.33333337e+00 0.00000000e+00 
4.00000000e+00 1.33333337e+00 0.00000000e+00 
5.00000000e+00 1.33333337e+00 0.00000000e+00 
6.00000000e+00 1.33333337e+00 0.00000000e+00 
3.00000000e+00 1.66666663e+00 0.00000000e+00 
4.00000000e+00 1.66666663e+00 0.00000000e+00 
5.00000000e+00 1.66666663e+00 0.00000000e+00 
6.00000000e+00 1.66666663e+00 0.00000000e+00 
3.00000000e+00 2.00000000e+00 0.00000000e+00 
4.00000000e+00 2.00000000e+00 0.00000000e+00 
5.00000000e+00 2.00000000e+00 0.00000000e+00 
6.00000000e+00 2.00000000e+00 0.00000000e+00 

        </DataArray>
      </Points>
      <Cells>
        <DataArray type="Int32" Name="connectivity" format="ascii">
0 1 5 4
4 5 9 8
8 9 13 12
1 2 6 5
5 6 10 9
9 10 14 13
2 3 7 6
6 7 11 10
10 11 15 14

        </DataArray>
        <DataArray type="Int32" Name="offsets" format="ascii">
4 8 12 16 20 24 28 32 36 
        </DataArray>
        <DataArray type="UInt8" Name="types" format="ascii">
9 9 9 9 9 9 9 9 9 
        </DataArray>
      </Cells>
      <PointData>
        <DataArray type="Float64" Name="u">
          0.00000000e+00 -8.31701878e+00 -1.41355636e+01 -2.34642410e+01 0.00000000e+00 -8.74750256e+00 -1.38731968e+01 -2.08195840e+01 0.00000000e+00 -7.81877599e+00 -1.02693664e+01 -1.19867841e+01 0.00000000e+00 -5.03854555e+00 -2.78287433e+00 3.38595883e+00 
        </DataArray>
        <DataArray type="Float64" Name="v">
          0.00000000e+00 5.94395543e+00 6.05534541e+00 3.61087881e+00 0.00000000e+00 9.60663082e+00 9.05280101e+00 4.62827306e+00 0.00000000e+00 1.23731060e+01 1.08252056e+01 4.33260435e+00 0.00000000e+00 1.48172774e+01 1.09266586e+01 1.87610230e+00 
        </DataArray>
        <DataArray type="Float64" Name="p">
          -2.86813449e+03 -2.82658648e+03 -2.78503847e+03 -2.74349046e+03 -2.90450237e+03 -2.87561915e+03 -2.84673594e+03 -2.81785272e+03 -2.94087025e+03 -2.92465183e+03 -2.90843341e+03 -2.89221499e+03 -2.97723812e+03 -2.97368450e+03 -2.97013088e+03 -2.96657725e+03 
        </DataArray>
      </PointData>
    </Piece>
    <Piece NumberOfPoints="16" NumberOfCells="9">
      <Points>
        <DataArray type="Float64" NumberOfComponents="3" format="ascii">
          3.00000000e+00 2.00000000e+00 0.00000000e+00 
4.00000000e+00 2.00000000e+00 0.00000000e+00 
5.00000000e+00 2.00000000e+00 0.00000000e+00 
6.00000000e+00 2.00000000e+00 0.00000000e+00 
3.00000000e+00 2.33333325e+00 0.00000000e+00 
4.00000000e+00 2.33333325e+00 0.00000000e+00 
5.00000000e+00 2.33333325e+00 0.00000000e+00 
6.00000000e+00 2.33333325e+00 0.00000000e+00 
3.00000000e+00 2.66666675e+00 0.00000000e+00 
4.00000000e+00 2.66666675e+00 0.00000000e+00 
5.00000000e+00 2.66666675e+00 0.00000000e+00 
6.00000000e+00 2.66666675e+00 0.00000000e+00 
3.00000000e+00 3.00000000e+00 0.00000000e+00 
4.00000000e+00 3.00000000e+00 0.00000000e+00 
5.00000000e+00 3.00000000e+00 0.00000000e+00 
6.00000000e+00 3.00000000e+00 0.00000000e+00 

        </DataArray>
      </Points>
      <Cells>
        <DataArray type="Int32" Name="connectivity" format="ascii">
0 1 5 4
4 5 9 8
8 9 13 12
1 2 6 5
5 6 10 9
9 10 14 13
2 3 7 6
6 7 11 10
10 11 15 14

        </DataArray>
        <DataArray type="Int32" Name="offsets" format="ascii">
4 8 12 16 20 24 28 32 36 
        </DataArray>
        <DataArray type="UInt8" Name="types" format="ascii">
9 9 9 9 9 9 9 9 9 
        </DataArray>
      </Cells>
      <PointData>
        <DataArray type="Float64" Name="u">
          0.00000000e+00 -5.03854555e+00 -2.78287433e+00 3.38595883e+00 0.00000000e+00 9.34939414e-01 9.17561140e+00 2.69825032e+01 0.00000000e+00 1.68511353e+01 3.16089984e+01 5.81290191e+01 0.00000000e+00 5.77851096e+01 7.28101265e+01 1.00194505e+02 
        </DataArray>
        <DataArray type="Float64" Name="v">
          0.00000000e+00 1.48172774e+01 1.09266586e+01 1.87610230e+00 0.00000000e+00 1.55308568e+01 7.00033704e+00 -4.25422591e+00 0.00000000e+00 1.11752588e+01 2.32806417e+00 -8.80221981e+00 0.00000000e+00 -1.49690199e+00 -7.50028522e+00 -1.35388716e+01 
        </DataArray>
        <DataArray type="Float64" Name="p">
          -2.94230582e+03 -2.98298319e+03 -3.02366056e+03 -3.06433793e+03 -3.14340324e+03 -3.06192103e+03 -2.98043881e+03 -2.89895659e+03 -3.34450067e+03 -3.14085886e+03 -2.93721706e+03 -2.73357526e+03 -3.54559809e+03 -3.21979670e+03 -2.89399531e+03 -2.56819392e+03 
        </DataArray>
      </PointData>
    </Piece>
    <Piece NumberOfPoints="16" NumberOfCells="9">
      <Points>
        <DataArray type="Float64" NumberOfComponents="3" format="ascii">
          3.00000000e+00 3.00000000e+00 0.00000000e+00 
4.00000000e+00 3.00000000e+00 0.00000000e+00 
5.00000000e+00 3.00000000e+00 0.00000000e+00 
6.00000000e+00 3.00000000e+00 0.00000000e+00 
3.00000000e+00 3.33333325e+00 0.00000000e+00 
4.00000000e+00 3.33333325e+00 0.00000000e+00 
5.00000000e+00 3.33333325e+00 0.00000000e+00 
6.00000000e+00 3.33333325e+00 0.00000000e+00 
3.00000000e+00 3.66666675e+00 0.00000000e+00 
4.00000000e+00 3.66666675e+00 0.00000000e+00 
5.00000000e+00 3.66666675e+00 0.00000000e+00 
6.00000000e+00 3.66666675e+00 0.00000000e+00 
3.00000000e+00 4.00000000e+00 0.00000000e+00 
4.00000000e+00 4.00000000e+00 0.00000000e+00 
5.00000000e+00 4.00000000e+00 0.00000000e+00 
6.00000000e+00 4.00000000e+00 0.00000000e+00 

        </DataArray>
      </Points>
      <Cells>
        <DataArray type="Int32" Name="connectivity" format="ascii">
0 1 5 4
4 5 9 8
8 9 13 12
1 2 6 5
5 6 10 9
9 10 14 13
2 3 7 6
6 7 11 10
10 11 15 14

        </DataArray>
        <DataArray type="Int32" Name="offsets" format="ascii">
4 8 12 16 20 24 28 32 36 
        </DataArray>
        <DataArray type="UInt8" Name="types" format="ascii">
9 9 9 9 9 9 9 9 9 
        </DataArray>
      </Cells>
      <PointData>
        <DataArray type="Float64" Name="u">
          0.00000000e+00 5.77851096e+01 7.28101265e+01 1.00194505e+02 1.02053771e+02 1.12706950e+02 1.27326084e+02 1.42113723e+02 1.65571406e+02 1.66785678e+02 1.74524918e+02 1.79952942e+02 2.06381532e+02 2.02201319e+02 2.05833248e+02 2.02512439e+02 
        </DataArray>
        <DataArray type="Float64" Name="v">
          0.00000000e+00 -1.49690199e+00 -7.50028522e+00 -1.35388716e+01 -4.15577236e+00 -1.30497022e+01 -1.58872134e+01 -1.66160293e+01 -4.10415808e+00 -1.31415062e+01 -1.74034974e+01 -1.87488648e+01 -6.59522340e+00 -1.41177683e+01 -1.85944900e+01 -2.23483929e+01 
        </DataArray>
        <DataArray type="Float64" Name="p">
          -3.70160281e+03 -3.29625689e+03 -2.89091098e+03 -2.48556507e+03 -3.16048000e+03 -2.95393452e+03 -2.74738905e+03 -2.54084357e+03 -2.61935719e+03 -2.61161215e+03 -2.60386712e+03 -2.59612208e+03 -2.07823439e+03 -2.26928979e+03 -2.46034518e+03 -2.65140058e+03 
        </DataArray>
      </PointData>
    </Piece>
    <Piece NumberOfPoints="16" NumberOfCells="9">
      <Points>
        <DataArray type="Float64" NumberOfComponents="3" format="ascii">
          3.00000000e+00 4.00000000e+00 0.00000000e+00 
4.00000000e+00 4.00000000e+00 0.00000000e+00 
5.00000000e+00 4.00000000e+00 0.00000000e+00 
6.00000000e+00 4.00000000e+00 0.00000000e+00 
3.00000000e+00 4.33333349e+00 0.00000000e+00 
4.00000000e+00 4.33333349e+00 0.00000000e+00 
5.00000000e+00 4.33333349e+00 0.00000000e+00 
6.00000000e+00 4.33333349e+00 0.00000000e+00 
3.00000000e+00 4.66666651e+00 0.00000000e+00 
4.00000000e+00 4.66666651e+00 0.00000000e+00 
5.00000000e+00 4.66666651e+00 0.00000000e+00 
6.00000000e+00 4.66666651e+00 0.00000000e+00 
3.00000000e+00 5.00000000e+00 0.00000000e+00 
4.00000000e+00 5.00000000e+00 0.00000000e+00 
5.00000000e+00 5.00000000e+00 0.00000000e+00 
6.00000000e+00 5.00000000e+00 0.00000000e+00 

        </DataArray>
      </Points>
      <Cells>
        <DataArray type="Int32" Name="connectivity" format="ascii">
0 1 5 4
4 5 9 8
8 9 13 12
1 2 6 5
5 6 10 9
9 10 14 13
2 3 7 6
6 7 11 10
10 11 15 14

        </DataArray>
        <DataArray type="Int32" Name="offsets" format="ascii">
4 8 12 16 20 24 28 32 36 
        </DataArray>
        <DataArray type="UInt8" Name="types" format="ascii">
9 9 9 9 9 9 9 9 9 
        </DataArray>
      </Cells>
      <PointData>
        <DataArray type="Float64" Name="u">
          2.06381532e+02 2.02201319e+02 2.05833248e+02 2.02512439e+02 2.24006825e+02 2.17325175e+02 2.15488459e+02 2.07066258e+02 2.19255220e+02 2.10174745e+02 2.04566694e+02 1.91563947e+02 1.92718919e+02 1.82703888e+02 1.74770667e+02 1.59670775e+02 
        </DataArray>
        <DataArray type="Float64" Name="v">
          -6.59522340e+00 -1.41177683e+01 -1.85944900e+01 -2.23483929e+01 -6.62613636e+00 -1.14022009e+01 -1.67013794e+01 -2.16826876e+01 -6.78660566e+00 -1.08512261e+01 -1.46646465e+01 -1.93801828e+01 -5.65656956e+00 -6.19169673e+00 -1.01700696e+01 -1.54009376e+01 
        </DataArray>
        <DataArray type="Float64" Name="p">
          -1.91856222e+03 -2.14596201e+03 -2.37336181e+03 -2.60076160e+03 -1.59911326e+03 -1.79668687e+03 -1.99426047e+03 -2.19183408e+03 -1.27966430e+03 -1.44741172e+03 -1.61515914e+03 -1.78290656e+03 -9.60215349e+02 -1.09813658e+03 -1.23605780e+03 -1.37397903e+03 
        </DataArray>
      </PointData>
    </Piece>
    <Piece NumberOfPoints="16" NumberOfCells="9">
      <Points>
        <DataArray type="Float64" NumberOfComponents="3" format="ascii">
          3.00000000e+00 5.00000000e+00 0.00000000e+00 
4.00000000e+00 5.00000000e+00 0.00000000e+00 
5.00000000e+00 5.00000000e+00 0.00000000e+00 
6.00000000e+00 5.00000000e+00 0.00000000e+00 
3.00000000e+00 5.33333349e+00 0.00000000e+00 
4.00000000e+00 5.33333349e+00 0.00000000e+00 
5.00000000e+00 5.33333349e+00 0.00000000e+00 
6.00000000e+00 5.33333349e+00 0.00000000e+00 
3.00000000e+00 5.66666651e+00 0.00000000e+00 
4.00000000e+00 5.66666651e+00 0.00000000e+00 
5.00000000e+00 5.66666651e+00 0.00000000e+00 
6.00000000e+00 5.66666651e+00 0.00000000e+00 
3.00000000e+00 6.00000000e+00 0.00000000e+00 
4.00000000e+00 6.00000000e+00 0.00000000e+00 
5.00000000e+00 6.00000000e+00 0.00000000e+00 
6.00000000e+00 6.00000000e+00 0.00000000e+00 

        </DataArray>
      </Points>
      <Cells>
        <DataArray type="Int32" Name="connectivity" format="ascii">
0 1 5 4
4 5 9 8
8 9 13 12
1 2 6 5
5 6 10 9
9 10 14 13
2 3 7 6
6 7 11 10
10 11 15 14

        </DataArray>
        <DataArray type="Int32" Name="offsets" format="ascii">
4 8 12 16 20 24 28 32 36 
        </DataArray>
        <DataArray type="UInt8" Name="types" format="ascii">
9 9 9 9 9 9 9 9 9 
        </DataArray>
      </Cells>
      <PointData>
        <DataArray type="Float64" Name="u">
          1.92718919e+02 1.82703888e+02 1.74770667e+02 1.59670775e+02 1.45474387e+02 1.36203766e+02 1.28592116e+02 1.16119376e+02 7.75714235e+01 7.93491482e+01 7.62535692e+01 7.22779265e+01 0.00000000e+00 3.47917558e+01 3.40077154e+01 4.15995057e+01 
        </DataArray>
        <DataArray type="Float64" Name="v">
          -5.65656956e+00 -6.19169673e+00 -1.01700696e+01 -1.54009376e+01 -3.53926166e+00 -1.85039772e+00 -4.60691163e+00 -1.01689647e+01 -1.95972009e+00 -1.84380703e+00 -5.38065624e+00 -8.19547820e+00 0.00000000e+00 -6.64822111e+00 -5.01870074e+00 -3.34398653e+00 
        </DataArray>
        <DataArray type="Float64" Name="p">
          -1.04185635e+03 -1.09927140e+03 -1.15668646e+03 -1.21410152e+03 -1.18981362e+03 -1.12626562e+03 -1.06271761e+03 -9.99169608e+02 -1.33777090e+03 -1.15325983e+03 -9.68748766e+02 -7.84237700e+02 -1.48572817e+03 -1.18025405e+03 -8.74779919e+02 -5.69305792e+02 
        </DataArray>
      </PointData>
    </Piece>
    <Piece NumberOfPoints="16" NumberOfCells="9">
      <Points>
        <DataArray type="Float64" NumberOfComponents="3" format="ascii">
          3.00000000e+00 6.00000000e+00 0.00000000e+00 
4.00000000e+00 6.00000000e+00 0.00000000e+00 
5.00000000e+00 6.00000000e+00 0.00000000e+00 
6.00000000e+00 6.00000000e+00 0.00000000e+00 
3.00000000e+00 6.33333349e+00 0.00000000e+00 
4.00000000e+00 6.33333349e+00 0.00000000e+00 
5.00000000e+00 6.33333349e+00 0.00000000e+00 
6.00000000e+00 6.33333349e+00 0.00000000e+00 
3.00000000e+00 6.66666651e+00 0.00000000e+00 
4.00000000e+00 6.66666651e+00 0.00000000e+00 
5.00000000e+00 6.66666651e+00 0.00000000e+00 
6.00000000e+00 6.66666651e+00 0.00000000e+00 
3.00000000e+00 7.00000000e+00 0.00000000e+00 
4.00000000e+00 7.00000000e+00 0.00000000e+00 
5.00000000e+00 7.00000000e+00 0.00000000e+00 
6.00000000e+00 7.00000000e+00 0.00000000e+00 

        </DataArray>
      </Points>
      <Cells>
        <DataArray type="Int32" Name="connectivity" format="ascii">
0 1 5 4
4 5 9 8
8 9 13 12
1 2 6 5
5 6 10 9
9 10 14 13
2 3 7 6
6 7 11 10
10 11 15 14

        </DataArray>
        <DataArray type="Int32" Name="offsets" format="ascii">
4 8 12 16 20 24 28 32 36 
        </DataArray>
        <DataArray type="UInt8" Name="types" format="ascii">
9 9 9 9 9 9 9 9 9 
        </DataArray>
      </Cells>
      <PointData>
        <DataArray type="Float64" Name="u">
          0.00000000e+00 3.47917558e+01 3.40077154e+01 4.15995057e+01 0.00000000e+00 7.35437206e+00 1.03919192e+01 1.64728206e+01 0.00000000e+00 -2.67097830e+00 -1.67402651e+00 9.41390349e-02 0.00000000e+00 -6.14413320e+00 -7.71976036e+00 -1.02502797e+01 
        </DataArray>
        <DataArray type="Float64" Name="v">
          0.00000000e+00 -6.64822111e+00 -5.01870074e+00 -3.34398653e+00 0.00000000e+00 -1.28247873e+01 -7.75507761e+00 -2.79378945e+00 0.00000000e+00 -1.39740095e+01 -7.99858596e+00 -3.25716976e+00 0.00000000e+00 -1.21584099e+01 -8.25326494e+00 -4.12642916e+00 
        </DataArray>
        <DataArray type="Float64" Name="p">
          -1.46030267e+03 -1.22787443e+03 -9.95446197e+02 -7.63017962e+02 -1.31562379e+03 -1.15262285e+03 -9.89621914e+02 -8.26620976e+02 -1.17094491e+03 -1.07737127e+03 -9.83797630e+02 -8.90223989e+02 -1.02626604e+03 -1.00211969e+03 -9.77973347e+02 -9.53827002e+02 
        </DataArray>
      </PointData>
    </Piece>
    <Piece NumberOfPoints="16" NumberOfCells="9">
      <Points>
        <DataArray type="Float64" NumberOfComponents="3" format="ascii">
          3.00000000e+00 7.00000000e+00 0.00000000e+00 
4.00000000e+00 7.00000000e+00 0.00000000e+00 
5.00000000e+00 7.00000000e+00 0.00000000e+00 
6.00000000e+00 7.00000000e+00 0.00000000e+00 
3.00000000e+00 7.33333349e+00 0.00000000e+00 
4.00000000e+00 7.33333349e+00 0.00000000e+00 
5.00000000e+00 7.33333349e+00 0.00000000e+00 
6.00000000e+00 7.33333349e+00 0.00000000e+00 
3.00000000e+00 7.66666651e+00 0.00000000e+00 
4.00000000e+00 7.66666651e+00 0.00000000e+00 
5.00000000e+00 7.66666651e+00 0.00000000e+00 
6.00000000e+00 7.66666651e+00 0.00000000e+00 
3.00000000e+00 8.00000000e+00 0.00000000e+00 
4.00000000e+00 8.00000000e+00 0.00000000e+00 
5.00000000e+00 8.00000000e+00 0.00000000e+00 
6.00000000e+00 8.00000000e+00 0.00000000e+00 

        </DataArray>
      </Points>
      <Cells>
        <DataArray type="Int32" Name="connectivity" format="ascii">
0 1 5 4
4 5 9 8
8 9 13 12
1 2 6 5
5 6 10 9
9 10 14 13
2 3 7 6
6 7 11 10
10 11 15 14

        </DataArray>
        <DataArray type="Int32" Name="offsets" format="ascii">
4 8 12 16 20 24 28 32 36 
        </DataArray>
        <DataArray type="UInt8" Name="types" format="ascii">
9 9 9 9 9 9 9 9 9 
        </DataArray>
      </Cells>
      <PointData>
        <DataArray type="Float64" Name="u">
          0.00000000e+00 -6.14413320e+00 -7.71976036e+00 -1.02502797e+01 0.00000000e+00 -7.22735100e+00 -1.06993046e+01 -1.52969976e+01 0.00000000e+00 -7.03767362e+00 -1.12986332e+01 -1.68533474e+01 0.00000000e+00 -6.08208916e+00 -1.01468180e+01 -1.56630961e+01 
        </DataArray>
        <DataArray type="Float64" Name="v">
          0.00000000e+00 -1.21584099e+01 -8.25326494e+00 -4.12642916e+00 0.00000000e+00 -9.42419103e+00 -6.88125988e+00 -3.85328747e+00 0.00000000e+00 -7.00477756e+00 -5.33661025e+00 -3.15022390e+00 0.00000000e+00 -4.13714792e+00 -3.36433548e+00 -2.06886659e+00 
        </DataArray>
        <DataArray type="Float64" Name="p">
          -1.03812767e+03 -9.93754158e+02 -9.49380648e+02 -9.05007138e+02 -9.97211801e+02 -9.59664053e+02 -9.22116305e+02 -8.84568556e+02 -9.56295935e+02 -9.25573948e+02 -8.94851961e+02 -8.64129974e+02 -9.15380069e+02 -8.91483843e+02 -8.67587618e+02 -8.43691392e+02 
        </DataArray>
      </PointData>
    </Piece>
    <Piece NumberOfPoints="16" NumberOfCells="9">
      <Points>
        <DataArray type="Float64" NumberOfComponents="3" format="ascii">
          3.00000000e+00 8.00000000e+00 0.00000000e+00 
4.00000000e+00 8.00000000e+00 0.00000000e+00 
5.00000000e+00 8.00000000e+00 0.00000000e+00 
6.00000000e+00 8.00000000e+00 0.00000000e+00 
3.00000000e+00 8.33333302e+00 0.00000000e+00 
4.00000000e+00 8.33333302e+00 0.00000000e+00 
5.00000000e+00 8.33333302e+00 0.00000000e+00 
6.00000000e+00 8.33333302e+00 0.00000000e+00 
3.00000000e+00 8.66666698e+00 0.00000000e+00 
4.00000000e+00 8.66666698e+00 0.00000000e+00 
5.00000000e+00 8.66666698e+00 0.00000000e+00 
6.00000000e+00 8.66666698e+00 0.00000000e+00 
3.00000000e+00 9.00000000e+00 0.00000000e+00 
4.00000000e+00 9.00000000e+00 0.00000000e+00 
5.00000000e+00 9.00000000e+00 0.00000000e+00 
6.00000000e+00 9.00000000e+00 0.00000000e+00 

        </DataArray>
      </Points>
      <Cells>
        <DataArray type="Int32" Name="connectivity" format="ascii">
0 1 5 4
4 5 9 8
8 9 13 12
1 2 6 5
5 6 10 9
9 10 14 13
2 3 7 6
6 7 11 10
10 11 15 14

        </DataArray>
        <DataArray type="Int32" Name="offsets" format="ascii">
4 8 12 16 20 24 28 32 36 
        </DataArray>
        <DataArray type="UInt8" Name="types" format="ascii">
9 9 9 9 9 9 9 9 9 
        </DataArray>
      </Cells>
      <PointData>
        <DataArray type="Float64" Name="u">
          0.00000000e+00 -6.08208916e+00 -1.01468180e+01 -1.56630961e+01 0.00000000e+00 -4.58248411e+00 -7.66951729e+00 -1.23179142e+01 0.00000000e+00 -2.56519944e+00 -4.17833832e+00 -7.03437054e+00 0.00000000e+00 0.00000000e+00 0.00000000e+00 0.00000000e+00 
        </DataArray>
        <DataArray type="Float64" Name="v">
          0.00000000e+00 -4.13714792e+00 -3.36433548e+00 -2.06886659e+00 0.00000000e+00 -1.86969806e+00 -1.61305196e+00 -9.57107034e-01 0.00000000e+00 -6.06915848e-01 -5.65089540e-01 -3.20099489e-01 0.00000000e+00 0.00000000e+00 0.00000000e+00 0.00000000e+00 
        </DataArray>
        <DataArray type="Float64" Name="p">
          -9.22669519e+02 -8.95745583e+02 -8.68821646e+02 -8.41897710e+02 -9.30961678e+02 -9.03295253e+02 -8.75628829e+02 -8.47962404e+02 -9.39253838e+02 -9.10844924e+02 -8.82436011e+02 -8.54027097e+02 -9.47545997e+02 -9.18394595e+02 -8.89243193e+02 -8.60091791e+02 
        </DataArray>
      </PointData>
    </Piece>
    <Piece NumberOfPoints="16" NumberOfCells="9">
      <Points>
        <DataArray type="Float64" NumberOfComponents="3" format="ascii">
          6.00000000e+00 0.00000000e+00 0.00000000e+00 
7.00000000e+00 0.00000000e+00 0.00000000e+00 
8.00000000e+00 0.00000000e+00 0.00000000e+00 
9.00000000e+00 0.00000000e+00 0.00000000e+00 
6.00000000e+00 3.33333343e-01 0.00000000e+00 
7.00000000e+00 3.33333343e-01 0.00000000e+00 
8.00000000e+00 3.33333343e-01 0.00000000e+00 
9.00000000e+00 3.33333343e-01 0.00000000e+00 
6.00000000e+00 6.66666687e-01 0.00000000e+00 
7.00000000e+00 6.66666687e-01 0.00000000e+00 
8.00000000e+00 6.66666687e-01 0.00000000e+00 
9.00000000e+00 6.66666687e-01 0.00000000e+00 
6.00000000e+00 1.00000000e+00 0.00000000e+00 
7.00000000e+00 1.00000000e+00 0.00000000e+00 
8.00000000e+00 1.00000000e+00 0.00000000e+00 
9.00000000e+00 1.00000000e+00 0.00000000e+00 

        </DataArray>
      </Points>
      <Cells>
        <DataArray type="Int32" Name="connectivity" format="ascii">
0 1 5 4
4 5 9 8
8 9 13 12
1 2 6 5
5 6 10 9
9 10 14 13
2 3 7 6
6 7 11 10
10 11 15 14

        </DataArray>
        <DataArray type="Int32" Name="offsets" format="ascii">
4 8 12 16 20 24 28 32 36 
        </DataArray>
        <DataArray type="UInt8" Name="types" format="ascii">
9 9 9 9 9 9 9 9 9 
        </DataArray>
      </Cells>
      <PointData>
        <DataArray type="Float64" Name="u">