<?xml version="1.0"?>
<VTKFile type="UnstructuredGrid" version="0.1" byte_order="LittleEndian">
  <UnstructuredGrid>
    <Piece NumberOfPoints="16" NumberOfCells="9">
      <Points>
        <DataArray type="Float64" NumberOfComponents="3" format="ascii">
          0.00000000e+00 3.00000000e+00 0.00000000e+00 
1.00000000e+00 3.00000000e+00 0.00000000e+00 
2.00000000e+00 3.00000000e+00 0.00000000e+00 
3.00000000e+00 3.00000000e+00 0.00000000e+00 
0.00000000e+00 3.33333325e+00 0.00000000e+00 
1.00000000e+00 3.33333325e+00 0.00000000e+00 
2.00000000e+00 3.33333325e+00 0.00000000e+00 
3.00000000e+00 3.33333325e+00 0.00000000e+00 
0.00000000e+00 3.66666675e+00 0.00000000e+00 
1.00000000e+00 3.66666675e+00 0.00000000e+00 
2.00000000e+00 3.66666675e+00 0.00000000e+00 
3.00000000e+00 3.66666675e+00 0.00000000e+00 
0.00000000e+00 4.00000000e+00 0.00000000e+00 
1.00000000e+00 4.00000000e+00 0.00000000e+00 
2.00000000e+00 4.00000000e+00 0.00000000e+00 
3.00000000e+00 4.00000000e+00 0.00000000e+00 

        </DataArray>
      </Points>
      <Cells>
        <DataArray type="Int32" Name="connectivity" format="ascii">
0 1 5 4
4 5 9 8
8 9 13 12
1 2 6 5
5 6 10 9
9 10 14 13
2 3 7 6
6 7 11 10
10 11 15 14

        </DataArray>
        <DataArray type="Int32" Name="offsets" format="ascii">
4 8 12 16 20 24 28 32 36 
        </DataArray>
        <DataArray type="UInt8" Name="types" format="ascii">
9 9 9 9 9 9 9 9 9 
        </DataArray>
      </Cells>
      <PointData>
        <DataArray type="Float64" Name="u">
          0.00000000e+00 0.00000000e+00 0.00000000e+00 0.00000000e+00 8.88888889e+01 9.37466252e+01 9.16997761e+01 1.03643432e+02 1.55555556e+02 1.59576590e+02 1.58748345e+02 1.66263551e+02 2.00000000e+02 2.02328729e+02 2.02280091e+02 2.07016128e+02 
        </DataArray>
        <DataArray type="Float64" Name="v">
          0.00000000e+00 0.00000000e+00 0.00000000e+00 0.00000000e+00 0.00000000e+00 -1.32422732e+00 -1.96320114e+00 -4.32725775e+00 0.00000000e+00 -9.80813808e-01 -2.43919777e+00 -4.30217031e+00 0.00000000e+00 -2.52047879e+00 -4.42192721e+00 -6.97402980e+00 
        </DataArray>
        <DataArray type="Float64" Name="p">
          -5.50788711e+02 -1.45315032e+03 -2.35551193e+03 -3.25787354e+03 -5.21768495e+02 -1.40741545e+03 -2.29306241e+03 -3.17870937e+03 -4.92748278e+02 -1.36168059e+03 -2.23061289e+03 -3.09954520e+03 -4.63728061e+02 -1.31594572e+03 -2.16816337e+03 -3.02038103e+03 
        </DataArray>
      </PointData>
    </Piece>
    <Piece NumberOfPoints="16" NumberOfCells="9">
      <Points>
        <DataArray type="Float64" NumberOfComponents="3" format="ascii">
          0.00000000e+00 4.00000000e+00 0.00000000e+00 
1.00000000e+00 4.00000000e+00 0.00000000e+00 
2.00000000e+00 4.00000000e+00 0.00000000e+00 
3.00000000e+00 4.00000000e+00 0.00000000e+00 
0.00000000e+00 4.33333349e+00 0.00000000e+00 
1.00000000e+00 4.33333349e+00 0.00000000e+00 
2.00000000e+00 4.33333349e+00 0.00000000e+00 
3.00000000e+00 4.33333349e+00 0.00000000e+00 
0.00000000e+00 4.66666651e+00 0.00000000e+00 
1.00000000e+00 4.66666651e+00 0.00000000e+00 
2.00000000e+00 4.66666651e+00 0.00000000e+00 
3.00000000e+00 4.66666651e+00 0.00000000e+00 
0.00000000e+00 5.00000000e+00 0.00000000e+00 
1.00000000e+00 5.00000000e+00 0.00000000e+00 
2.00000000e+00 5.00000000e+00 0.00000000e+00 
3.00000000e+00 5.00000000e+00 0.00000000e+00 

        </DataArray>
      </Points>
      <Cells>
        <DataArray type="Int32" Name="connectivity" format="ascii">
0 1 5 4
4 5 9 8
8 9 13 12
1 2 6 5
5 6 10 9
9 10 14 13
2 3 7 6
6 7 11 10
10 11 15 14

        </DataArray>
        <DataArray type="Int32" Name="offsets" format="ascii">
4 8 12 16 20 24 28 32 36 
        </DataArray>
        <DataArray type="UInt8" Name="types" format="ascii">
9 9 9 9 9 9 9 9 9 
        </DataArray>
      </Cells>
      <PointData>
        <DataArray type="Float64" Name="u">
          2.00000000e+02 2.02328729e+02 2.02280091e+02 2.07016128e+02 2.22222222e+02 2.23005194e+02 2.22931636e+02 2.24224428e+02 2.22222222e+02 2.21255919e+02 2.21057617e+02 2.19219732e+02 2.00000000e+02 1.97507463e+02 1.97433112e+02 1.92339671e+02 
        </DataArray>
        <DataArray type="Float64" Name="v">
          0.00000000e+00 -2.52047879e+00 -4.42192721e+00 -6.97402980e+00 0.00000000e+00 -2.90591274e+00 -5.26835607e+00 -7.09078382e+00 0.00000000e+00 -2.92799156e+00 -5.19497587e+00 -7.19217864e+00 0.00000000e+00 -2.37473343e+00 -4.45114649e+00 -6.10858925e+00 
        </DataArray>
        <DataArray type="Float64" Name="p">
          -4.37449049e+02 -1.28624955e+03 -2.13505005e+03 -2.98385056e+03 -2.11309293e+02 -1.09121565e+03 -1.97112200e+03 -2.85102835e+03 1.48304630e+01 -8.96181739e+02 -1.80719394e+03 -2.71820614e+03 2.40970219e+02 -7.01147832e+02 -1.64326588e+03 -2.58538393e+03 
        </DataArray>
      </PointData>
    </Piece>
    <Piece NumberOfPoints="16" NumberOfCells="9">
      <Points>
        <DataArray type="Float64" NumberOfComponents="3" format="ascii">
          0.00000000e+00 5.00000000e+00 0.00000000e+00 
1.00000000e+00 5.00000000e+00 0.00000000e+00 
2.00000000e+00 5.00000000e+00 0.00000000e+00 
3.00000000e+00 5.00000000e+00 0.00000000e+00 
0.00000000e+00 5.33333349e+00 0.00000000e+00 
1.00000000e+00 5.33333349e+00 0.00000000e+00 
2.00000000e+00 5.33333349e+00 0.00000000e+00 
3.00000000e+00 5.33333349e+00 0.00000000e+00 
0.00000000e+00 5.66666651e+00 0.00000000e+00 
1.00000000e+00 5.66666651e+00 0.00000000e+00 
2.00000000e+00 5.66666651e+00 0.00000000e+00 
3.00000000e+00 5.66666651e+00 0.00000000e+00 
0.00000000e+00 6.00000000e+00 0.00000000e+00 
1.00000000e+00 6.00000000e+00 0.00000000e+00 
2.00000000e+00 6.00000000e+00 0.00000000e+00 
3.00000000e+00 6.00000000e+00 0.00000000e+00 

        </DataArray>
      </Points>
      <Cells>
        <DataArray type="Int32" Name="connectivity" format="ascii">
0 1 5 4
4 5 9 8
8 9 13 12
1 2 6 5
5 6 10 9
9 10 14 13
2 3 7 6
6 7 11 10
10 11 15 14

        </DataArray>
        <DataArray type="Int32" Name="offsets" format="ascii">
4 8 12 16 20 24 28 32 36 
        </DataArray>
        <DataArray type="UInt8" Name="types" format="ascii">
9 9 9 9 9 9 9 9 9 
        </DataArray>
      </Cells>
      <PointData>
        <DataArray type="Float64" Name="u">
          2.00000000e+02 1.97507463e+02 1.97433112e+02 1.92339671e+02 1.55555556e+02 1.51868945e+02 1.52260346e+02 1.44681168e+02 8.88888889e+01 8.49633026e+01 8.58527752e+01 7.57304907e+01 0.00000000e+00 0.00000000e+00 0.00000000e+00 0.00000000e+00 
        </DataArray>
        <DataArray type="Float64" Name="v">
          0.00000000e+00 -2.37473343e+00 -4.45114649e+00 -6.10858925e+00 0.00000000e+00 -9.56122055e-01 -2.32025691e+00 -3.85004434e+00 0.00000000e+00 -1.10619990e+00 -2.16084906e+00 -2.43640944e+00 0.00000000e+00 0.00000000e+00 0.00000000e+00 0.00000000e+00 
        </DataArray>
        <DataArray type="Float64" Name="p">
          2.56211597e+02 -6.73142096e+02 -1.60249579e+03 -2.53184948e+03 2.97838357e+02 -6.26688297e+02 -1.55121495e+03 -2.47574160e+03 3.39465116e+02 -5.80234497e+02 -1.49993411e+03 -2.41963372e+03 3.81091875e+02 -5.33780698e+02 -1.44865327e+03 -2.36352584e+03 
        </DataArray>
      </PointData>
    </Piece>
    <Piece NumberOfPoints="16" NumberOfCells="9">
      <Points>
        <DataArray type="Float64" NumberOfComponents="3" format="ascii">
          3.00000000e+00 0.00000000e+00 0.00000000e+00 
4.00000000e+00 0.00000000e+00 0.00000000e+00 
5.00000000e+00 0.00000000e+00 0.00000000e+00 
6.00000000e+00 0.00000000e+00 0.00000000e+00 
3.00000000e+00 3.33333343e-01 0.00000000e+00 
4.00000000e+00 3.33333343e-01 0.00000000e+00 
5.00000000e+00 3.33333343e-01 0.00000000e+00 
6.00000000e+00 3.33333343e-01 0.00000000e+00 
3.00000000e+00 6.66666687e-01 0.00000000e+00 
4.00000000e+00 6.66666687e-01 0.00000000e+00 
5.00000000e+00 6.66666687e-01 0.00000000e+00 
6.00000000e+00 6.66666687e-01 0.00000000e+00 
3.00000000e+00 1.00000000e+00 0.00000000e+00 
4.00000000e+00 1.00000000e+00 0.00000000e+00 
5.00000000e+00 1.00000000e+00 0.00000000e+00 
6.00000000e+00 1.00000000e+00 0.00000000e+00 

        </DataArray>
      </Points>
      <Cells>
        <DataArray type="Int32" Name="connectivity" format="ascii">
0 1 5 4
4 5 9 8
8 9 13 12
1 2 6 5
5 6 10 9
9 10 14 13
2 3 7 6
6 7 11 10
10 11 15 14

        </DataArray>
        <DataArray type="Int32" Name="offsets" format="ascii">
4 8 12 16 20 24 28 32 36 
        </DataArray>
        <DataArray type="UInt8" Name="types" format="ascii">
9 9 9 9 9 9 9 9 9 
        </DataArray>
      </Cells>
      <PointData>
        <DataArray type="Float64" Name="u">
          0.00000000e+00 0.00000000e+00 0.00000000e+00 0.00000000e+00 0.00000000e+00 -3.19718341e+00 -5.78254112e+00 -9.96377768e+00 0.00000000e+00 -5.69734862e+00 -1.04712006e+01 -1.82876526e+01 0.00000000e+00 -7.30062836e+00 -1.33107354e+01 -2.20508786e+01 
        </DataArray>
        <DataArray type="Float64" Name="v">
          0.00000000e+00 0.00000000e+00 0.00000000e+00 0.00000000e+00 0.00000000e+00 8.17335806e-01 7.99638821e-01 6.59914942e-01 0.00000000e+00 2.43801242e+00 2.39643792e+00 1.74148035e+00 0.00000000e+00 5.31187079e+00 5.43300275e+00 3.36710257e+00 
        </DataArray>
        <DataArray type="Float64" Name="p">
          -3.85990596e+03 -3.83355668e+03 -3.80720739e+03 -3.78085811e+03 -3.85326466e+03 -3.82590036e+03 -3.79853605e+03 -3.77117174e+03 -3.84662337e+03 -3.81824404e+03 -3.78986471e+03 -3.76148538e+03 -3.83998208e+03 -3.81058772e+03 -3.78119337e+03 -3.75179901e+03 
        </DataArray>
      </PointData>
    </Piece>
    <Piece NumberOfPoints="16" NumberOfCells="9">
      <Points>
        <DataArray type="Float64" NumberOfComponents="3" format="ascii">
          3.00000000e+00 1.00000000e+00 0.00000000e+00 
4.00000000e+00 1.00000000e+00 0.00000000e+00 
5.00000000e+00 1.00000000e+00 0.00000000e+00 
6.00000000e+00 1.00000000e+00 0.00000000e+00 
3.00000000e+00 1.33333337e+00 0.00000000e+00 
4.00000000e+00 1.33333337e+00 0.00000000e+00 
5.00000000e+00 1.33333337e+00 0.00000000e+00 
6.00000000e+00 1.33333337e+00 0.00000000e+00 
3.00000000e+00 1.66666663e+00 0.00000000e+00 
4.00000000e+00 1.66666663e+00 0.00000000e+00 
5.00000000e+00 1.66666663e+00 0.00000000e+00 
6.00000000e+00 1.66666663e+00 0.00000000e+00 
3.00000000e+00 2.00000000e+00 0.00000000e+00 
4.00000000e+00 2.00000000e+00 0.00000000e+00 
5.00000000e+00 2.00000000e+00 0.00000000e+00 
6.00000000e+00 2.00000000e+00 0.00000000e+00 

        </DataArray>
      </Points>
      <Cells>
        <DataArray type="Int32" Name="connectivity" format="ascii">
0 1 5 4
4 5 9 8
8 9 13 12
1 2 6 5
5 6 10 9
9 10 14 13
2 3 7 6
6 7 11 10
10 11 15 14

        </DataArray>
        <DataArray type="Int32" Name="offsets" format="ascii">
4 8 12 16 20 24 28 32 36 
        </DataArray>
        <DataArray type="UInt8" Name="types" format="ascii">
9 9 9 9 9 9 9 9 9 
        </DataArray>
      </Cells>
      <PointData>
        <DataArray type="Float64" Name="u">
          0.00000000e+00 -7.30062836e+00 -1.33107354e+01 -2.20508786e+01 0.00000000e+00 -7.84881818e+00 -1.34626890e+01 -2.02826233e+01 0.00000000e+00 -7.21246213e+00 -1.04604970e+01 -1.26062808e+01 0.00000000e+00 -4.95024435e+00 -3.67475289e+00 1.51605597e+00 
        </DataArray>
        <DataArray type="Float64" Name="v">
          0.00000000e+00 5.31187079e+00 5.43300275e+00 3.36710257e+00 0.00000000e+00 8.71977714e+00 8.31183179e+00 4.68848908e+00 0.00000000e+00 1.13415938e+01 1.00978044e+01 4.65792982e+00 0.00000000e+00 1.37829391e+01 1.04353432e+01 2.68072131e+00 
        </DataArray>
        <DataArray type="Float64" Name="p">
          -3.83159064e+03 -3.80956366e+03 -3.78753668e+03 -3.76550971e+03 -3.85899208e+03 -3.84812607e+03 -3.83726006e+03 -3.82639405e+03 -3.88639353e+03 -3.88668848e+03 -3.88698344e+03 -3.88727839e+03 -3.91379498e+03 -3.92525090e+03 -3.93670682e+03 -3.94816273e+03 
        </DataArray>
      </PointData>
    </Piece>
    <Piece NumberOfPoints="16" NumberOfCells="9">
      <Points>
        <DataArray type="Float64" NumberOfComponents="3" format="ascii">
          3.00000000e+00 2.00000000e+00 0.00000000e+00 
4.00000000e+00 2.00000000e+00 0.00000000e+00 
5.00000000e+00 2.00000000e+00 0.00000000e+00 
6.00000000e+00 2.00000000e+00 0.00000000e+00 
3.00000000e+00 2.33333325e+00 0.00000000e+00 
4.00000000e+00 2.33333325e+00 0.00000000e+00 
5.00000000e+00 2.33333325e+00 0.00000000e+00 
6.00000000e+00 2.33333325e+00 0.00000000e+00 
3.00000000e+00 2.66666675e+00 0.00000000e+00 
4.00000000e+00 2.66666675e+00 0.00000000e+00 
5.00000000e+00 2.66666675e+00 0.00000000e+00 
6.00000000e+00 2.66666675e+00 0.00000000e+00 
3.00000000e+00 3.00000000e+00 0.00000000e+00 
4.00000000e+00 3.00000000e+00 0.00000000e+00 
5.00000000e+00 3.00000000e+00 0.00000000e+00 
6.00000000e+00 3.00000000e+00 0.00000000e+00 

        </DataArray>
      </Points>
      <Cells>
        <DataArray type="Int32" Name="connectivity" format="ascii">
0 1 5 4
4 5 9 8
8 9 13 12
1 2 6 5
5 6 10 9
9 10 14 13
2 3 7 6
6 7 11 10
10 11 15 14

        </DataArray>
        <DataArray type="Int32" Name="offsets" format="ascii">
4 8 12 16 20 24 28 32 36 
        </DataArray>
        <DataArray type="UInt8" Name="types" format="ascii">
9 9 9 9 9 9 9 9 9 
        </DataArray>
      </Cells>
      <PointData>
        <DataArray type="Float64" Name="u">
          0.00000000e+00 -4.95024435e+00 -3.67475289e+00 1.51605597e+00 0.00000000e+00 2.00416351e-01 7.44660492e+00 2.43230526e+01 0.00000000e+00 1.50300188e+01 2.93117140e+01 5.56741398e+01 0.00000000e+00 5.66232383e+01 7.23367127e+01 9.99148368e+01 
        </DataArray>
        <DataArray type="Float64" Name="v">
          0.00000000e+00 1.37829391e+01 1.04353432e+01 2.68072131e+00 0.00000000e+00 1.46935665e+01 6.81612078e+00 -3.32068692e+00 0.00000000e+00 1.08894598e+01 2.67724429e+00 -7.89325735e+00 0.00000000e+00 -1.25072483e+00 -7.17429913e+00 -1.31968499e+01 
        </DataArray>
        <DataArray type="Float64" Name="p">
          -3.88484741e+03 -3.93425356e+03 -3.98365972e+03 -4.03306588e+03 -4.04425158e+03 -3.99490331e+03 -3.94555505e+03 -3.89620678e+03 -4.20365575e+03 -4.05555307e+03 -3.90745038e+03 -3.75934769e+03 -4.36305993e+03 -4.11620282e+03 -3.86934571e+03 -3.62248860e+03 
        </DataArray>
      </PointData>
    </Piece>
    <Piece NumberOfPoints="16" NumberOfCells="9">
      <Points>
        <DataArray type="Float64" NumberOfComponents="3" format="ascii">
          3.00000000e+00 3.00000000e+00 0.00000000e+00 
4.00000000e+00 3.00000000e+00 0.00000000e+00 
5.00000000e+00 3.00000000e+00 0.00000000e+00 
6.00000000e+00 3.00000000e+00 0.00000000e+00 
3.00000000e+00 3.33333325e+00 0.00000000e+00 
4.00000000e+00 3.33333325e+00 0.00000000e+00 
5.00000000e+00 3.33333325e+00 0.00000000e+00 
6.00000000e+00 3.33333325e+00 0.00000000e+00 
3.00000000e+00 3.66666675e+00 0.00000000e+00 
4.00000000e+00 3.66666675e+00 0.00000000e+00 
5.00000000e+00 3.66666675e+00 0.00000000e+00 
6.00000000e+00 3.66666675e+00 0.00000000e+00 
3.00000000e+00 4.00000000e+00 0.00000000e+00 
4.00000000e+00 4.00000000e+00 0.00000000e+00 
5.00000000e+00 4.00000000e+00 0.00000000e+00 
6.00000000e+00 4.00000000e+00 0.00000000e+00 

        </DataArray>
      </Points>
      <Cells>
        <DataArray type="Int32" Name="connectivity" format="ascii">
0 1 5 4
4 5 9 8
8 9 13 12
1 2 6 5
5 6 10 9
9 10 14 13
2 3 7 6
6 7 11 10
10 11 15 14

        </DataArray>
        <DataArray type="Int32" Name="offsets" format="ascii">
4 8 12 16 20 24 28 32 36 
        </DataArray>
        <DataArray type="UInt8" Name="types" format="ascii">
9 9 9 9 9 9 9 9 9 
        </DataArray>
      </Cells>
      <PointData>
        <DataArray type="Float64" Name="u">
          0.00000000e+00 5.66232383e+01 7.23367127e+01 9.99148368e+01 1.03643432e+02 1.14061862e+02 1.29015766e+02 1.44536795e+02 1.66263551e+02 1.68682551e+02 1.76701215e+02 1.83339454e+02 2.07016128e+02 2.03926185e+02 2.07993800e+02 2.06167322e+02 
        </DataArray>
        <DataArray type="Float64" Name="v">
          0.00000000e+00 -1.25072483e+00 -7.17429913e+00 -1.31968499e+01 -4.32725775e+00 -1.28440400e+01 -1.60019543e+01 -1.70616040e+01 -4.30217031e+00 -1.25306690e+01 -1.70137670e+01 -1.89682483e+01 -6.97402980e+00 -1.41889156e+01 -1.89233738e+01 -2.31522997e+01 
        </DataArray>
        <DataArray type="Float64" Name="p">
          -4.51550450e+03 -4.19948533e+03 -3.88346617e+03 -3.56744701e+03 -4.02724223e+03 -3.87819697e+03 -3.72915171e+03 -3.58010645e+03 -3.53897997e+03 -3.55690861e+03 -3.57483725e+03 -3.59276589e+03 -3.05071771e+03 -3.23562024e+03 -3.42052278e+03 -3.60542532e+03 
        </DataArray>
      </PointData>
    </Piece>
    <Piece NumberOfPoints="16" NumberOfCells="9">
      <Points>
        <DataArray type="Float64" NumberOfComponents="3" format="ascii">
          3.00000000e+00 4.00000000e+00 0.00000000e+00 
4.00000000e+00 4.00000000e+00 0.00000000e+00 
5.00000000e+00 4.00000000e+00 0.00000000e+00 
6.00000000e+00 4.00000000e+00 0.00000000e+00 
3.00000000e+00 4.33333349e+00 0.00000000e+00 
4.00000000e+00 4.33333349e+00 0.00000000e+00 
5.00000000e+00 4.33333349e+00 0.00000000e+00 
6.00000000e+00 4.33333349e+00 0.00000000e+00 
3.00000000e+00 4.66666651e+00 0.00000000e+00 
4.00000000e+00 4.66666651e+00 0.00000000e+00 
5.00000000e+00 4.66666651e+00 0.00000000e+00 
6.00000000e+00 4.66666651e+00 0.00000000e+00 
3.00000000e+00 5.00000000e+00 0.00000000e+00 
4.00000000e+00 5.00000000e+00 0.00000000e+00 
5.00000000e+00 5.00000000e+00 0.00000000e+00 
6.00000000e+00 5.00000000e+00 0.00000000e+00 

        </DataArray>
      </Points>
      <Cells>
        <DataArray type="Int32" Name="connectivity" format="ascii">
0 1 5 4
4 5 9 8
8 9 13 12
1 2 6 5
5 6 10 9
9 10 14 13
2 3 7 6
6 7 11 10
10 11 15 14

        </DataArray>
        <DataArray type="Int32" Name="offsets" format="ascii">
4 8 12 16 20 24 28 32 36 
        </DataArray>
        <DataArray type="UInt8" Name="types" format="ascii">
9 9 9 9 9 9 9 9 9 
        </DataArray>
      </Cells>
      <PointData>
        <DataArray type="Float64" Name="u">
          2.07016128e+02 2.03926185e+02 2.07993800e+02 2.06167322e+02 2.24224428e+02 2.18889600e+02 2.17261501e+02 2.10024086e+02 2.19219732e+02 2.11102623e+02 2.05551030e+02 1.93146931e+02 1.92339671e+02 1.82964255e+02 1.74727184e+02 1.59575695e+02 
        </DataArray>
        <DataArray type="Float64" Name="v">
          -6.97402980e+00 -1.41889156e+01 -1.89233738e+01 -2.31522997e+01 -7.09078382e+00 -1.19331923e+01 -1.73345697e+01 -2.25068336e+01 -7.19217864e+00 -1.16629172e+01 -1.57567129e+01 -2.04969695e+01 -6.10858925e+00 -7.27628439e+00 -1.12735673e+01 -1.62276507e+01 
        </DataArray>
        <DataArray type="Float64" Name="p">
          -2.92344468e+03 -3.12794151e+03 -3.33243835e+03 -3.53693519e+03 -2.58657220e+03 -2.76591931e+03 -2.94526642e+03 -3.12461353e+03 -2.24969972e+03 -2.40389711e+03 -2.55809449e+03 -2.71229188e+03 -1.91282725e+03 -2.04187491e+03 -2.17092256e+03 -2.29997022e+03 
        </DataArray>
      </PointData>
    </Piece>
    <Piece NumberOfPoints="16" NumberOfCells="9">
      <Points>
        <DataArray type="Float64" NumberOfComponents="3" format="ascii">
          3.00000000e+00 5.00000000e+00 0.00000000e+00 
4.00000000e+00 5.00000000e+00 0.00000000e+00 
5.00000000e+00 5.00000000e+00 0.00000000e+00 
6.00000000e+00 5.00000000e+00 0.00000000e+00 
3.00000000e+00 5.33333349e+00 0.00000000e+00 
4.00000000e+00 5.33333349e+00 0.00000000e+00 
5.00000000e+00 5.33333349e+00 0.00000000e+00 
6.00000000e+00 5.33333349e+00 0.00000000e+00 
3.00000000e+00 5.66666651e+00 0.00000000e+00 
4.00000000e+00 5.66666651e+00 0.00000000e+00 
5.00000000e+00 5.66666651e+00 0.00000000e+00 
6.00000000e+00 5.66666651e+00 0.00000000e+00 
3.00000000e+00 6.00000000e+00 0.00000000e+00 
4.00000000e+00 6.00000000e+00 0.00000000e+00 
5.00000000e+00 6.00000000e+00 0.00000000e+00 
6.00000000e+00 6.00000000e+00 0.00000000e+00 

        </DataArray>
      </Points>
      <Cells>
        <DataArray type="Int32" Name="connectivity" format="ascii">
0 1 5 4
4 5 9 8
8 9 13 12
1 2 6 5
5 6 10 9
9 10 14 13
2 3 7 6
6 7 11 10
10 11 15 14

        </DataArray>
        <DataArray type="Int32" Name="offsets" format="ascii">
4 8 12 16 20 24 28 32 36 
        </DataArray>
        <DataArray type="UInt8" Name="types" format="ascii">
9 9 9 9 9 9 9 9 9 
        </DataArray>
      </Cells>
      <PointData>
        <DataArray type="Float64" Name="u">
          1.92339671e+02 1.82964255e+02 1.74727184e+02 1.59575695e+02 1.44681168e+02 1.35069688e+02 1.26697474e+02 1.13202355e+02 7.57304907e+01 7.63498934e+01 7.22148243e+01 6.70031441e+01 0.00000000e+00 3.15428463e+01 3.01607323e+01 3.66778709e+01 
        </DataArray>
        <DataArray type="Float64" Name="v">
          -6.10858925e+00 -7.27628439e+00 -1.12735673e+01 -1.62276507e+01 -3.85004434e+00 -2.77941599e+00 -5.33878784e+00 -1.04320139e+01 -2.43640944e+00 -2.71615074e+00 -6.12381378e+00 -8.64301911e+00 0.00000000e+00 -6.74554589e+00 -5.12586326e+00 -3.47004018e+00 
        </DataArray>
        <DataArray type="Float64" Name="p">
          -1.96943145e+03 -2.02898821e+03 -2.08854496e+03 -2.14810172e+03 -2.07034742e+03 -2.03332052e+03 -1.99629363e+03 -1.95926673e+03 -2.17126338e+03 -2.03765284e+03 -1.90404229e+03 -1.77043175e+03 -2.27217935e+03 -2.04198516e+03 -1.81179096e+03 -1.58159676e+03 
        </DataArray>
      </PointData>
    </Piece>
    <Piece NumberOfPoints="16" NumberOfCells="9">
      <Points>
        <DataArray type="Float64" NumberOfComponents="3" format="ascii">
          3.00000000e+00 6.00000000e+00 0.00000000e+00 
4.00000000e+00 6.00000000e+00 0.00000000e+00 
5.00000000e+00 6.00000000e+00 0.00000000e+00 
6.00000000e+00 6.00000000e+00 0.00000000e+00 
3.00000000e+00 6.33333349e+00 0.00000000e+00 
4.00000000e+00 6.33333349e+00 0.00000000e+00 
5.00000000e+00 6.33333349e+00 0.00000000e+00 
6.00000000e+00 6.33333349e+00 0.00000000e+00 
3.00000000e+00 6.66666651e+00 0.00000000e+00 
4.00000000e+00 6.66666651e+00 0.00000000e+00 
5.00000000e+00 6.66666651e+00 0.00000000e+00 
6.00000000e+00 6.66666651e+00 0.00000000e+00 
3.00000000e+00 7.00000000e+00 0.00000000e+00 
4.00000000e+00 7.00000000e+00 0.00000000e+00 
5.00000000e+00 7.00000000e+00 0.00000000e+00 
6.00000000e+00 7.00000000e+00 0.00000000e+00 

        </DataArray>
      </Points>
      <Cells>
        <DataArray type="Int32" Name="connectivity" format="ascii">
0 1 5 4
4 5 9 8
8 9 13 12
1 2 6 5
5 6 10 9
9 10 14 13
2 3 7 6
6 7 11 10
10 11 15 14

        </DataArray>
        <DataArray type="Int32" Name="offsets" format="ascii">
4 8 12 16 20 24 28 32 36 
        </DataArray>
        <DataArray type="UInt8" Name="types" format="ascii">
9 9 9 9 9 9 9 9 9 
        </DataArray>
      </Cells>
      <PointData>
        <DataArray type="Float64" Name="u">
          0.00000000e+00 3.15428463e+01 3.01607323e+01 3.66778709e+01 0.00000000e+00 5.73594209e+00 8.02107150e+00 1.31917800e+01 0.00000000e+00 -2.97931131e+00 -2.62745324e+00 -1.52494622e+00 0.00000000e+00 -5.79670629e+00 -7.74196639e+00 -1.04118577e+01 
        </DataArray>
        <DataArray type="Float64" Name="v">
          0.00000000e+00 -6.74554589e+00 -5.12586326e+00 -3.47004018e+00 0.00000000e+00 -1.20715936e+01 -7.47814206e+00 -2.99573407e+00 0.00000000e+00 -1.27973183e+01 -7.42623795e+00 -3.39624142e+00 0.00000000e+00 -1.09590015e+01 -7.52516631e+00 -4.05393568e+00 
        </DataArray>
        <DataArray type="Float64" Name="p">
          -2.25236398e+03 -2.08649617e+03 -1.92062835e+03 -1.75476054e+03 -2.14314278e+03 -2.02863600e+03 -1.91412923e+03 -1.79962245e+03 -2.03392158e+03 -1.97077584e+03 -1.90763010e+03 -1.84448437e+03 -1.92470038e+03 -1.91291568e+03 -1.90113098e+03 -1.88934628e+03 
        </DataArray>
      </PointData>
    </Piece>
    <Piece NumberOfPoints="16" NumberOfCells="9">
      <Points>
        <DataArray type="Float64" NumberOfComponents="3" format="ascii">
          3.00000000e+00 7.00000000e+00 0.00000000e+00 
4.00000000e+00 7.00000000e+00 0.00000000e+00 
5.00000000e+00 7.00000000e+00 0.00000000e+00 
6.00000000e+00 7.00000000e+00 0.00000000e+00 
3.00000000e+00 7.33333349e+00 0.00000000e+00 
4.00000000e+00 7.33333349e+00 0.00000000e+00 
5.00000000e+00 7.33333349e+00 0.00000000e+00 
6.00000000e+00 7.33333349e+00 0.00000000e+00 
3.00000000e+00 7.66666651e+00 0.00000000e+00 
4.00000000e+00 7.66666651e+00 0.00000000e+00 
5.00000000e+00 7.66666651e+00 0.00000000e+00 
6.00000000e+00 7.66666651e+00 0.00000000e+00 
3.00000000e+00 8.00000000e+00 0.00000000e+00 
4.00000000e+00 8.00000000e+00 0.00000000e+00 
5.00000000e+00 8.00000000e+00 0.00000000e+00 
6.00000000e+00 8.00000000e+00 0.00000000e+00 

        </DataArray>
      </Points>
      <Cells>
        <DataArray type="Int32" Name="connectivity" format="ascii">
0 1 5 4
4 5 9 8
8 9 13 12
1 2 6 5
5 6 10 9
9 10 14 13
2 3 7 6
6 7 11 10
10 11 15 14

        </DataArray>
        <DataArray type="Int32" Name="offsets" format="ascii">
4 8 12 16 20 24 28 32 36 
        </DataArray>
        <DataArray type="UInt8" Name="types" format="ascii">
9 9 9 9 9 9 9 9 9 
        </DataArray>
      </Cells>
      <PointData>
        <DataArray type="Float64" Name="u">
          0.00000000e+00 -5.79670629e+00 -7.74196639e+00 -1.04118577e+01 0.00000000e+00 -6.54253266e+00 -1.00958879e+01 -1.44324747e+01 0.00000000e+00 -6.22220511e+00 -1.03496090e+01 -1.53799532e+01 0.00000000e+00 -5.27903976e+00 -9.10635997e+00 -1.39859455e+01 
        </DataArray>
        <DataArray type="Float64" Name="v">
          0.00000000e+00 -1.09590015e+01 -7.52516631e+00 -4.05393568e+00 0.00000000e+00 -8.37615352e+00 -6.16693820e+00 -3.65912877e+00 0.00000000e+00 -6.17536944e+00 -4.74491775e+00 -2.94145448e+00 0.00000000e+00 -3.60232071e+00 -2.95128203e+00 -1.90060193e+00 
        </DataArray>
        <DataArray type="Float64" Name="p">
          -1.93313521e+03 -1.90587007e+03 -1.87860494e+03 -1.85133980e+03 -1.90309677e+03 -1.88042658e+03 -1.85775639e+03 -1.83508620e+03 -1.87305834e+03 -1.85498309e+03 -1.83690784e+03 -1.81883260e+03 -1.84301990e+03 -1.82953960e+03 -1.81605930e+03 -1.80257900e+03 
        </DataArray>
      </PointData>
    </Piece>
    <Piece NumberOfPoints="16" NumberOfCells="9">
      <Points>
        <DataArray type="Float64" NumberOfComponents="3" format="ascii">
          3.00000000e+00 8.00000000e+00 0.00000000e+00 
4.00000000e+00 8.00000000e+00 0.00000000e+00 
5.00000000e+00 8.00000000e+00 0.00000000e+00 
6.00000000e+00 8.00000000e+00 0.00000000e+00 
3.00000000e+00 8.33333302e+00 0.00000000e+00 
4.00000000e+00 8.33333302e+00 0.00000000e+00 
5.00000000e+00 8.33333302e+00 0.00000000e+00 
6.00000000e+00 8.33333302e+00 0.00000000e+00 
3.00000000e+00 8.66666698e+00 0.00000000e+00 
4.00000000e+00 8.66666698e+00 0.00000000e+00 
5.00000000e+00 8.66666698e+00 0.00000000e+00 
6.00000000e+00 8.66666698e+00 0.00000000e+00 
3.00000000e+00 9.00000000e+00 0.00000000e+00 
4.00000000e+00 9.00000000e+00 0.00000000e+00 
5.00000000e+00 9.00000000e+00 0.00000000e+00 
6.00000000e+00 9.00000000e+00 0.00000000e+00 

        </DataArray>
      </Points>
      <Cells>
        <DataArray type="Int32" Name="connectivity" format="ascii">
0 1 5 4
4 5 9 8
8 9 13 12
1 2 6 5
5 6 10 9
9 10 14 13
2 3 7 6
6 7 11 10
10 11 15 14

        </DataArray>
        <DataArray type="Int32" Name="offsets" format="ascii">
4 8 12 16 20 24 28 32 36 
        </DataArray>
        <DataArray type="UInt8" Name="types" format="ascii">
9 9 9 9 9 9 9 9 9 
        </DataArray>
      </Cells>
      <PointData>
        <DataArray type="Float64" Name="u">
          0.00000000e+00 -5.27903976e+00 -9.10635997e+00 -1.39859455e+01 0.00000000e+00 -3.90978469e+00 -6.77090454e+00 -1.08157806e+01 0.00000000e+00 -2.15144821e+00 -3.63826596e+00 -6.08364771e+00 0.00000000e+00 0.00000000e+00 0.00000000e+00 0.00000000e+00 
        </DataArray>
        <DataArray type="Float64" Name="v">
          0.00000000e+00 -3.60232071e+00 -2.95128203e+00 -1.90060193e+00 0.00000000e+00 -1.61391171e+00 -1.40198985e+00 -8.74597427e-01 0.00000000e+00 -5.16889461e-01 -4.84617718e-01 -2.90497963e-01 0.00000000e+00 0.00000000e+00 0.00000000e+00 0.00000000e+00 
        </DataArray>
        <DataArray type="Float64" Name="p">
          -1.84885015e+03 -1.83323105e+03 -1.81761194e+03 -1.80199284e+03 -1.85488235e+03 -1.83878847e+03 -1.82269460e+03 -1.80660072e+03 -1.86091455e+03 -1.84434590e+03 -1.82777725e+03 -1.81120860e+03 -1.86694675e+03 -1.84990333e+03 -1.83285991e+03 -1.81581649e+03 
        </DataArray>
      </PointData>
    </Piece>
    <Piece NumberOfPoints="16" NumberOfCells="9">
      <Points>
        <DataArray type="Float64" NumberOfComponents="3" format="ascii">
          6.00000000e+00 0.00000000e+00 0.00000000e+00 
7.00000000e+00 0.00000000e+00 0.00000000e+00 
8.00000000e+00 0.00000000e+00 0.00000000e+00 
9.00000000e+00 0.00000000e+00 0.00000000e+00 
6.00000000e+00 3.33333343e-01 0.00000000e+00 
7.00000000e+00 3.33333343e-01 0.00000000e+00 
8.00000000e+00 3.33333343e-01 0.00000000e+00 
9.00000000e+00 3.33333343e-01 0.00000000e+00 
6.00000000e+00 6.66666687e-01 0.00000000e+00 
7.00000000e+00 6.66666687e-01 0.00000000e+00 
8.00000000e+00 6.66666687e-01 0.00000000e+00 
9.00000000e+00 6.66666687e-01 0.00000000e+00 
6.00000000e+00 1.00000000e+00 0.00000000e+00 
7.00000000e+00 1.00000000e+00 0.00000000e+00 
8.00000000e+00 1.00000000e+00 0.00000000e+00 
9.00000000e+00 1.00000000e+00 0.00000000e+00 

        </DataArray>
      </Points>
      <Cells>
        <DataArray type="Int32" Name="connectivity" format="ascii">
0 1 5 4
4 5 9 8
8 9 13 12
1 2 6 5
5 6 10 9
9 10 14 13
2 3 7 6
6 7 11 10
10 11 15 14

        </DataArray>
        <DataArray type="Int32" Name="offsets" format="ascii">
4 8 12 16 20 24 28 32 36 
        </DataArray>
        <DataArray type="UInt8" Name="types" format="ascii">
9 9 9 9 9 9 9 9 9 
        </DataArray>
      </Cells>
      <PointData>
        <DataArray type="Float64" Name="u">