<?xml version="1.0"?>
<VTKFile type="UnstructuredGrid" version="0.1" byte_order="LittleEndian">
  <UnstructuredGrid>
    <Piece NumberOfPoints="16" NumberOfCells="9">
      <Points>
        <DataArray type="Float64" NumberOfComponents="3" format="ascii">
          0.00000000e+00 3.00000000e+00 0.00000000e+00 
1.00000000e+00 3.00000000e+00 0.00000000e+00 
2.00000000e+00 3.00000000e+00 0.00000000e+00 
3.00000000e+00 3.00000000e+00 0.00000000e+00 
0.00000000e+00 3.33333325e+00 0.00000000e+00 
1.00000000e+00 3.33333325e+00 0.00000000e+00 
2.00000000e+00 3.33333325e+00 0.00000000e+00 
3.00000000e+00 3.33333325e+00 0.00000000e+00 
0.00000000e+00 3.66666675e+00 0.00000000e+00 
1.00000000e+00 3.66666675e+00 0.00000000e+00 
2.00000000e+00 3.66666675e+00 0.00000000e+00 
3.00000000e+00 3.66666675e+00 0.00000000e+00 
0.00000000e+00 4.00000000e+00 0.00000000e+00 
1.00000000e+00 4.00000000e+00 0.00000000e+00 
2.00000000e+00 4.00000000e+00 0.00000000e+00 
3.00000000e+00 4.00000000e+00 0.00000000e+00 

        </DataArray>
      </Points>
      <Cells>
        <DataArray type="Int32" Name="connectivity" format="ascii">
0 1 5 4
4 5 9 8
8 9 13 12
1 2 6 5
5 6 10 9
9 10 14 13
2 3 7 6
6 7 11 10
10 11 15 14

        </DataArray>
        <DataArray type="Int32" Name="offsets" format="ascii">
4 8 12 16 20 24 28 32 36 
        </DataArray>
        <DataArray type="UInt8" Name="types" format="ascii">
9 9 9 9 9 9 9 9 9 
        </DataArray>
      </Cells>
      <PointData>
        <DataArray type="Float64" Name="u">
          0.00000000e+00 0.00000000e+00 0.00000000e+00 0.00000000e+00 8.88888889e+01 9.41693608e+01 9.19184188e+01 1.04463858e+02 1.55555556e+02 1.59750529e+02 1.58826700e+02 1.66504383e+02 2.00000000e+02 2.02410330e+02 2.02266034e+02 2.07232503e+02 
        </DataArray>
        <DataArray type="Float64" Name="v">
          0.00000000e+00 0.00000000e+00 0.00000000e+00 0.00000000e+00 0.00000000e+00 -1.46531031e+00 -2.15405205e+00 -4.37913698e+00 0.00000000e+00 -1.03147772e+00 -2.52747240e+00 -4.36420986e+00 0.00000000e+00 -2.66846223e+00 -4.61272010e+00 -7.09108424e+00 
        </DataArray>
        <DataArray type="Float64" Name="p">
          -1.28850622e+03 -2.07467462e+03 -2.86084302e+03 -3.64701142e+03 -1.25333599e+03 -2.02568327e+03 -2.79803055e+03 -3.57037783e+03 -1.21816575e+03 -1.97669192e+03 -2.73521808e+03 -3.49374425e+03 -1.18299551e+03 -1.92770056e+03 -2.67240561e+03 -3.41711066e+03 
        </DataArray>
      </PointData>
    </Piece>
    <Piece NumberOfPoints="16" NumberOfCells="9">
      <Points>
        <DataArray type="Float64" NumberOfComponents="3" format="ascii">
          0.00000000e+00 4.00000000e+00 0.00000000e+00 
1.00000000e+00 4.00000000e+00 0.00000000e+00 
2.00000000e+00 4.00000000e+00 0.00000000e+00 
3.00000000e+00 4.00000000e+00 0.00000000e+00 
0.00000000e+00 4.33333349e+00 0.00000000e+00 
1.00000000e+00 4.33333349e+00 0.00000000e+00 
2.00000000e+00 4.33333349e+00 0.00000000e+00 
3.00000000e+00 4.33333349e+00 0.00000000e+00 
0.00000000e+00 4.66666651e+00 0.00000000e+00 
1.00000000e+00 4.66666651e+00 0.00000000e+00 
2.00000000e+00 4.66666651e+00 0.00000000e+00 
3.00000000e+00 4.66666651e+00 0.00000000e+00 
0.00000000e+00 5.00000000e+00 0.00000000e+00 
1.00000000e+00 5.00000000e+00 0.00000000e+00 
2.00000000e+00 5.00000000e+00 0.00000000e+00 
3.00000000e+00 5.00000000e+00 0.00000000e+00 

        </DataArray>
      </Points>
      <Cells>
        <DataArray type="Int32" Name="connectivity" format="ascii">
0 1 5 4
4 5 9 8
8 9 13 12
1 2 6 5
5 6 10 9
9 10 14 13
2 3 7 6
6 7 11 10
10 11 15 14

        </DataArray>
        <DataArray type="Int32" Name="offsets" format="ascii">
4 8 12 16 20 24 28 32 36 
        </DataArray>
        <DataArray type="UInt8" Name="types" format="ascii">
9 9 9 9 9 9 9 9 9 
        </DataArray>
      </Cells>
      <PointData>
        <DataArray type="Float64" Name="u">
          2.00000000e+02 2.02410330e+02 2.02266034e+02 2.07232503e+02 2.22222222e+02 2.23059444e+02 2.22928834e+02 2.24255278e+02 2.22222222e+02 2.21285061e+02 2.21015212e+02 2.19203794e+02 2.00000000e+02 1.97532901e+02 1.97372973e+02 1.92216463e+02 
        </DataArray>
        <DataArray type="Float64" Name="v">
          0.00000000e+00 -2.66846223e+00 -4.61272010e+00 -7.09108424e+00 0.00000000e+00 -3.06784191e+00 -5.46916528e+00 -7.24751535e+00 0.00000000e+00 -3.08359529e+00 -5.40368198e+00 -7.31514658e+00 0.00000000e+00 -2.53218776e+00 -4.63744089e+00 -6.25669491e+00 
        </DataArray>
        <DataArray type="Float64" Name="p">
          -1.15709194e+03 -1.89855694e+03 -2.64002195e+03 -3.38148696e+03 -9.15532568e+02 -1.69653694e+03 -2.47754132e+03 -3.25854569e+03 -6.73973198e+02 -1.49451694e+03 -2.31506069e+03 -3.13560443e+03 -4.32413829e+02 -1.29249694e+03 -2.15258005e+03 -3.01266317e+03 
        </DataArray>
      </PointData>
    </Piece>
    <Piece NumberOfPoints="16" NumberOfCells="9">
      <Points>
        <DataArray type="Float64" NumberOfComponents="3" format="ascii">
          0.00000000e+00 5.00000000e+00 0.00000000e+00 
1.00000000e+00 5.00000000e+00 0.00000000e+00 
2.00000000e+00 5.00000000e+00 0.00000000e+00 
3.00000000e+00 5.00000000e+00 0.00000000e+00 
0.00000000e+00 5.33333349e+00 0.00000000e+00 
1.00000000e+00 5.33333349e+00 0.00000000e+00 
2.00000000e+00 5.33333349e+00 0.00000000e+00 
3.00000000e+00 5.33333349e+00 0.00000000e+00 
0.00000000e+00 5.66666651e+00 0.00000000e+00 
1.00000000e+00 5.66666651e+00 0.00000000e+00 
2.00000000e+00 5.66666651e+00 0.00000000e+00 
3.00000000e+00 5.66666651e+00 0.00000000e+00 
0.00000000e+00 6.00000000e+00 0.00000000e+00 
1.00000000e+00 6.00000000e+00 0.00000000e+00 
2.00000000e+00 6.00000000e+00 0.00000000e+00 
3.00000000e+00 6.00000000e+00 0.00000000e+00 

        </DataArray>
      </Points>
      <Cells>
        <DataArray type="Int32" Name="connectivity" format="ascii">
0 1 5 4
4 5 9 8
8 9 13 12
1 2 6 5
5 6 10 9
9 10 14 13
2 3 7 6
6 7 11 10
10 11 15 14

        </DataArray>
        <DataArray type="Int32" Name="offsets" format="ascii">
4 8 12 16 20 24 28 32 36 
        </DataArray>
        <DataArray type="UInt8" Name="types" format="ascii">
9 9 9 9 9 9 9 9 9 
        </DataArray>
      </Cells>
      <PointData>
        <DataArray type="Float64" Name="u">
          2.00000000e+02 1.97532901e+02 1.97372973e+02 1.92216463e+02 1.55555556e+02 1.51773686e+02 1.52077386e+02 1.44417324e+02 8.88888889e+01 8.46026653e+01 8.55378775e+01 7.48560516e+01 0.00000000e+00 0.00000000e+00 0.00000000e+00 0.00000000e+00 
        </DataArray>
        <DataArray type="Float64" Name="v">
          0.00000000e+00 -2.53218776e+00 -4.63744089e+00 -6.25669491e+00 0.00000000e+00 -1.01672758e+00 -2.40363834e+00 -3.93944909e+00 0.00000000e+00 -1.25363216e+00 -2.31401511e+00 -2.64092056e+00 0.00000000e+00 0.00000000e+00 0.00000000e+00 0.00000000e+00 
        </DataArray>
        <DataArray type="Float64" Name="p">
          -4.15226435e+02 -1.26362134e+03 -2.11201624e+03 -2.96041114e+03 -3.69405245e+02 -1.21467659e+03 -2.05994793e+03 -2.90521927e+03 -3.23584056e+02 -1.16573184e+03 -2.00787962e+03 -2.85002740e+03 -2.77762866e+02 -1.11678709e+03 -1.95581131e+03 -2.79483553e+03 
        </DataArray>
      </PointData>
    </Piece>
    <Piece NumberOfPoints="16" NumberOfCells="9">
      <Points>
        <DataArray type="Float64" NumberOfComponents="3" format="ascii">
          3.00000000e+00 0.00000000e+00 0.00000000e+00 
4.00000000e+00 0.00000000e+00 0.00000000e+00 
5.00000000e+00 0.00000000e+00 0.00000000e+00 
6.00000000e+00 0.00000000e+00 0.00000000e+00 
3.00000000e+00 3.33333343e-01 0.00000000e+00 
4.00000000e+00 3.33333343e-01 0.00000000e+00 
5.00000000e+00 3.33333343e-01 0.00000000e+00 
6.00000000e+00 3.33333343e-01 0.00000000e+00 
3.00000000e+00 6.66666687e-01 0.00000000e+00 
4.00000000e+00 6.66666687e-01 0.00000000e+00 
5.00000000e+00 6.66666687e-01 0.00000000e+00 
6.00000000e+00 6.66666687e-01 0.00000000e+00 
3.00000000e+00 1.00000000e+00 0.00000000e+00 
4.00000000e+00 1.00000000e+00 0.00000000e+00 
5.00000000e+00 1.00000000e+00 0.00000000e+00 
6.00000000e+00 1.00000000e+00 0.00000000e+00 

        </DataArray>
      </Points>
      <Cells>
        <DataArray type="Int32" Name="connectivity" format="ascii">
0 1 5 4
4 5 9 8
8 9 13 12
1 2 6 5
5 6 10 9
9 10 14 13
2 3 7 6
6 7 11 10
10 11 15 14

        </DataArray>
        <DataArray type="Int32" Name="offsets" format="ascii">
4 8 12 16 20 24 28 32 36 
        </DataArray>
        <DataArray type="UInt8" Name="types" format="ascii">
9 9 9 9 9 9 9 9 9 
        </DataArray>
      </Cells>
      <PointData>
        <DataArray type="Float64" Name="u">
          0.00000000e+00 0.00000000e+00 0.00000000e+00 0.00000000e+00 0.00000000e+00 -2.85575973e+00 -5.35890888e+00 -8.91700025e+00 0.00000000e+00 -5.18619279e+00 -9.81274410e+00 -1.68991876e+01 0.00000000e+00 -6.75940560e+00 -1.26557563e+01 -2.08869148e+01 
        </DataArray>
        <DataArray type="Float64" Name="v">
          0.00000000e+00 0.00000000e+00 0.00000000e+00 0.00000000e+00 0.00000000e+00 7.49920283e-01 6.82600463e-01 5.48263369e-01 0.00000000e+00 2.24915235e+00 2.12938791e+00 1.60370943e+00 0.00000000e+00 4.93437871e+00 4.95042882e+00 3.12407012e+00 
        </DataArray>
        <DataArray type="Float64" Name="p">
          -4.28405379e+03 -4.26741739e+03 -4.25078099e+03 -4.23414460e+03 -4.27907437e+03 -4.26106411e+03 -4.24305386e+03 -4.22504360e+03 -4.27409495e+03 -4.25471083e+03 -4.23532672e+03 -4.21594260e+03 -4.26911553e+03 -4.24835755e+03 -4.22759958e+03 -4.20684160e+03 
        </DataArray>
      </PointData>
    </Piece>
    <Piece NumberOfPoints="16" NumberOfCells="9">
      <Points>
        <DataArray type="Float64" NumberOfComponents="3" format="ascii">
          3.00000000e+00 1.00000000e+00 0.00000000e+00 
4.00000000e+00 1.00000000e+00 0.00000000e+00 
5.00000000e+00 1.00000000e+00 0.00000000e+00 
6.00000000e+00 1.00000000e+00 0.00000000e+00 
3.00000000e+00 1.33333337e+00 0.00000000e+00 
4.00000000e+00 1.33333337e+00 0.00000000e+00 
5.00000000e+00 1.33333337e+00 0.00000000e+00 
6.00000000e+00 1.33333337e+00 0.00000000e+00 
3.00000000e+00 1.66666663e+00 0.00000000e+00 
4.00000000e+00 1.66666663e+00 0.00000000e+00 
5.00000000e+00 1.66666663e+00 0.00000000e+00 
6.00000000e+00 1.66666663e+00 0.00000000e+00 
3.00000000e+00 2.00000000e+00 0.00000000e+00 
4.00000000e+00 2.00000000e+00 0.00000000e+00 
5.00000000e+00 2.00000000e+00 0.00000000e+00 
6.00000000e+00 2.00000000e+00 0.00000000e+00 

        </DataArray>
      </Points>
      <Cells>
        <DataArray type="Int32" Name="connectivity" format="ascii">
0 1 5 4
4 5 9 8
8 9 13 12
1 2 6 5
5 6 10 9
9 10 14 13
2 3 7 6
6 7 11 10
10 11 15 14

        </DataArray>
        <DataArray type="Int32" Name="offsets" format="ascii">
4 8 12 16 20 24 28 32 36 
        </DataArray>
        <DataArray type="UInt8" Name="types" format="ascii">
9 9 9 9 9 9 9 9 9 
        </DataArray>
      </Cells>
      <PointData>
        <DataArray type="Float64" Name="u">
          0.00000000e+00 -6.75940560e+00 -1.26557563e+01 -2.08869148e+01 0.00000000e+00 -7.39808432e+00 -1.30321779e+01 -1.96919932e+01 0.00000000e+00 -6.96107973e+00 -1.03959478e+01 -1.28563056e+01 0.00000000e+00 -5.02317348e+00 -4.04568620e+00 2.94426392e-01 
        </DataArray>
        <DataArray type="Float64" Name="v">
          0.00000000e+00 4.93437871e+00 4.95042882e+00 3.12407012e+00 0.00000000e+00 8.18206211e+00 7.68805913e+00 4.60657819e+00 0.00000000e+00 1.07076627e+01 9.43170883e+00 4.70648883e+00 0.00000000e+00 1.31387769e+01 9.91794251e+00 3.02079591e+00 
        </DataArray>
        <DataArray type="Float64" Name="p">
          -4.26193463e+03 -4.24697456e+03 -4.23201449e+03 -4.21705442e+03 -4.28669830e+03 -4.28064747e+03 -4.27459664e+03 -4.26854582e+03 -4.31146196e+03 -4.31432038e+03 -4.31717880e+03 -4.32003722e+03 -4.33622563e+03 -4.34799329e+03 -4.35976096e+03 -4.37152862e+03 
        </DataArray>
      </PointData>
    </Piece>
    <Piece NumberOfPoints="16" NumberOfCells="9">
      <Points>
        <DataArray type="Float64" NumberOfComponents="3" format="ascii">
          3.00000000e+00 2.00000000e+00 0.00000000e+00 
4.00000000e+00 2.00000000e+00 0.00000000e+00 
5.00000000e+00 2.00000000e+00 0.00000000e+00 
6.00000000e+00 2.00000000e+00 0.00000000e+00 
3.00000000e+00 2.33333325e+00 0.00000000e+00 
4.00000000e+00 2.33333325e+00 0.00000000e+00 
5.00000000e+00 2.33333325e+00 0.00000000e+00 
6.00000000e+00 2.33333325e+00 0.00000000e+00 
3.00000000e+00 2.66666675e+00 0.00000000e+00 
4.00000000e+00 2.66666675e+00 0.00000000e+00 
5.00000000e+00 2.66666675e+00 0.00000000e+00 
6.00000000e+00 2.66666675e+00 0.00000000e+00 
3.00000000e+00 3.00000000e+00 0.00000000e+00 
4.00000000e+00 3.00000000e+00 0.00000000e+00 
5.00000000e+00 3.00000000e+00 0.00000000e+00 
6.00000000e+00 3.00000000e+00 0.00000000e+00 

        </DataArray>
      </Points>
      <Cells>
        <DataArray type="Int32" Name="connectivity" format="ascii">
0 1 5 4
4 5 9 8
8 9 13 12
1 2 6 5
5 6 10 9
9 10 14 13
2 3 7 6
6 7 11 10
10 11 15 14

        </DataArray>
        <DataArray type="Int32" Name="offsets" format="ascii">
4 8 12 16 20 24 28 32 36 
        </DataArray>
        <DataArray type="UInt8" Name="types" format="ascii">
9 9 9 9 9 9 9 9 9 
        </DataArray>
      </Cells>
      <PointData>
        <DataArray type="Float64" Name="u">
          0.00000000e+00 -5.02317348e+00 -4.04568620e+00 2.94426392e-01 0.00000000e+00 -3.41610865e-01 6.56817012e+00 2.24094029e+01 0.00000000e+00 1.38163999e+01 2.79604911e+01 5.36966522e+01 0.00000000e+00 5.57064114e+01 7.18380299e+01 9.90774719e+01 
        </DataArray>
        <DataArray type="Float64" Name="v">
          0.00000000e+00 1.31387769e+01 9.91794251e+00 3.02079591e+00 0.00000000e+00 1.41501628e+01 6.54747399e+00 -2.80833701e+00 0.00000000e+00 1.06676154e+01 2.81070754e+00 -7.34190016e+00 0.00000000e+00 -1.12589713e+00 -6.93777370e+00 -1.28480546e+01 
        </DataArray>
        <DataArray type="Float64" Name="p">
          -4.31034895e+03 -4.35681337e+03 -4.40327778e+03 -4.44974219e+03 -4.44950222e+03 -4.40923267e+03 -4.36896312e+03 -4.32869357e+03 -4.58865548e+03 -4.46165197e+03 -4.33464846e+03 -4.20764495e+03 -4.72780875e+03 -4.51407127e+03 -4.30033380e+03 -4.08659632e+03 
        </DataArray>
      </PointData>
    </Piece>
    <Piece NumberOfPoints="16" NumberOfCells="9">
      <Points>
        <DataArray type="Float64" NumberOfComponents="3" format="ascii">
          3.00000000e+00 3.00000000e+00 0.00000000e+00 
4.00000000e+00 3.00000000e+00 0.00000000e+00 
5.00000000e+00 3.00000000e+00 0.00000000e+00 
6.00000000e+00 3.00000000e+00 0.00000000e+00 
3.00000000e+00 3.33333325e+00 0.00000000e+00 
4.00000000e+00 3.33333325e+00 0.00000000e+00 
5.00000000e+00 3.33333325e+00 0.00000000e+00 
6.00000000e+00 3.33333325e+00 0.00000000e+00 
3.00000000e+00 3.66666675e+00 0.00000000e+00 
4.00000000e+00 3.66666675e+00 0.00000000e+00 
5.00000000e+00 3.66666675e+00 0.00000000e+00 
6.00000000e+00 3.66666675e+00 0.00000000e+00 
3.00000000e+00 4.00000000e+00 0.00000000e+00 
4.00000000e+00 4.00000000e+00 0.00000000e+00 
5.00000000e+00 4.00000000e+00 0.00000000e+00 
6.00000000e+00 4.00000000e+00 0.00000000e+00 

        </DataArray>
      </Points>
      <Cells>
        <DataArray type="Int32" Name="connectivity" format="ascii">
0 1 5 4
4 5 9 8
8 9 13 12
1 2 6 5
5 6 10 9
9 10 14 13
2 3 7 6
6 7 11 10
10 11 15 14

        </DataArray>
        <DataArray type="Int32" Name="offsets" format="ascii">
4 8 12 16 20 24 28 32 36 
        </DataArray>
        <DataArray type="UInt8" Name="types" format="ascii">
9 9 9 9 9 9 9 9 9 
        </DataArray>
      </Cells>
      <PointData>
        <DataArray type="Float64" Name="u">
          0.00000000e+00 5.57064114e+01 7.18380299e+01 9.90774719e+01 1.04463858e+02 1.14538022e+02 1.29590232e+02 1.45147704e+02 1.66504383e+02 1.69400869e+02 1.77455587e+02 1.84488579e+02 2.07232503e+02 2.04631807e+02 2.08830656e+02 2.07743774e+02 
        </DataArray>
        <DataArray type="Float64" Name="v">
          0.00000000e+00 -1.12589713e+00 -6.93777370e+00 -1.28480546e+01 -4.37913698e+00 -1.26500233e+01 -1.58917563e+01 -1.70562107e+01 -4.36420986e+00 -1.21076131e+01 -1.65834187e+01 -1.87294318e+01 -7.09108424e+00 -1.40599388e+01 -1.88231488e+01 -2.31630092e+01 
        </DataArray>
        <DataArray type="Float64" Name="p">
          -4.87525617e+03 -4.59814456e+03 -4.32103294e+03 -4.04392132e+03 -4.41613845e+03 -4.29047678e+03 -4.16481512e+03 -4.03915346e+03 -3.95702072e+03 -3.98280901e+03 -4.00859730e+03 -4.03438559e+03 -3.49790300e+03 -3.67514124e+03 -3.85237948e+03 -4.02961772e+03 
        </DataArray>
      </PointData>
    </Piece>
    <Piece NumberOfPoints="16" NumberOfCells="9">
      <Points>
        <DataArray type="Float64" NumberOfComponents="3" format="ascii">
          3.00000000e+00 4.00000000e+00 0.00000000e+00 
4.00000000e+00 4.00000000e+00 0.00000000e+00 
5.00000000e+00 4.00000000e+00 0.00000000e+00 
6.00000000e+00 4.00000000e+00 0.00000000e+00 
3.00000000e+00 4.33333349e+00 0.00000000e+00 
4.00000000e+00 4.33333349e+00 0.00000000e+00 
5.00000000e+00 4.33333349e+00 0.00000000e+00 
6.00000000e+00 4.33333349e+00 0.00000000e+00 
3.00000000e+00 4.66666651e+00 0.00000000e+00 
4.00000000e+00 4.66666651e+00 0.00000000e+00 
5.00000000e+00 4.66666651e+00 0.00000000e+00 
6.00000000e+00 4.66666651e+00 0.00000000e+00 
3.00000000e+00 5.00000000e+00 0.00000000e+00 
4.00000000e+00 5.00000000e+00 0.00000000e+00 
5.00000000e+00 5.00000000e+00 0.00000000e+00 
6.00000000e+00 5.00000000e+00 0.00000000e+00 

        </DataArray>
      </Points>
      <Cells>
        <DataArray type="Int32" Name="connectivity" format="ascii">
0 1 5 4
4 5 9 8
8 9 13 12
1 2 6 5
5 6 10 9
9 10 14 13
2 3 7 6
6 7 11 10
10 11 15 14

        </DataArray>
        <DataArray type="Int32" Name="offsets" format="ascii">
4 8 12 16 20 24 28 32 36 
        </DataArray>
        <DataArray type="UInt8" Name="types" format="ascii">
9 9 9 9 9 9 9 9 9 
        </DataArray>
      </Cells>
      <PointData>
        <DataArray type="Float64" Name="u">
          2.07232503e+02 2.04631807e+02 2.08830656e+02 2.07743774e+02 2.24255278e+02 2.19609794e+02 2.18067726e+02 2.11490733e+02 2.19203794e+02 2.11603594e+02 2.06129445e+02 1.94181597e+02 1.92216463e+02 1.83250292e+02 1.74965168e+02 1.59974885e+02 
        </DataArray>
        <DataArray type="Float64" Name="v">
          -7.09108424e+00 -1.40599388e+01 -1.88231488e+01 -2.31630092e+01 -7.24751535e+00 -1.20390412e+01 -1.73933664e+01 -2.25462951e+01 -7.31514658e+00 -1.18863304e+01 -1.60467799e+01 -2.07188153e+01 -6.25669491e+00 -7.67838671e+00 -1.16240168e+01 -1.63759391e+01 
        </DataArray>
        <DataArray type="Float64" Name="p">
          -3.38802390e+03 -3.57765107e+03 -3.76727824e+03 -3.95690541e+03 -3.04856557e+03 -3.21613687e+03 -3.38370817e+03 -3.55127947e+03 -2.70910723e+03 -2.85462266e+03 -3.00013810e+03 -3.14565353e+03 -2.36964890e+03 -2.49310846e+03 -2.61656802e+03 -2.74002759e+03 
        </DataArray>
      </PointData>
    </Piece>
    <Piece NumberOfPoints="16" NumberOfCells="9">
      <Points>
        <DataArray type="Float64" NumberOfComponents="3" format="ascii">
          3.00000000e+00 5.00000000e+00 0.00000000e+00 
4.00000000e+00 5.00000000e+00 0.00000000e+00 
5.00000000e+00 5.00000000e+00 0.00000000e+00 
6.00000000e+00 5.00000000e+00 0.00000000e+00 
3.00000000e+00 5.33333349e+00 0.00000000e+00 
4.00000000e+00 5.33333349e+00 0.00000000e+00 
5.00000000e+00 5.33333349e+00 0.00000000e+00 
6.00000000e+00 5.33333349e+00 0.00000000e+00 
3.00000000e+00 5.66666651e+00 0.00000000e+00 
4.00000000e+00 5.66666651e+00 0.00000000e+00 
5.00000000e+00 5.66666651e+00 0.00000000e+00 
6.00000000e+00 5.66666651e+00 0.00000000e+00 
3.00000000e+00 6.00000000e+00 0.00000000e+00 
4.00000000e+00 6.00000000e+00 0.00000000e+00 
5.00000000e+00 6.00000000e+00 0.00000000e+00 
6.00000000e+00 6.00000000e+00 0.00000000e+00 

        </DataArray>
      </Points>
      <Cells>
        <DataArray type="Int32" Name="connectivity" format="ascii">
0 1 5 4
4 5 9 8
8 9 13 12
1 2 6 5
5 6 10 9
9 10 14 13
2 3 7 6
6 7 11 10
10 11 15 14

        </DataArray>
        <DataArray type="Int32" Name="offsets" format="ascii">
4 8 12 16 20 24 28 32 36 
        </DataArray>
        <DataArray type="UInt8" Name="types" format="ascii">
9 9 9 9 9 9 9 9 9 
        </DataArray>
      </Cells>
      <PointData>
        <DataArray type="Float64" Name="u">
          1.92216463e+02 1.83250292e+02 1.74965168e+02 1.59974885e+02 1.44417324e+02 1.34672882e+02 1.26010710e+02 1.12123200e+02 7.48560516e+01 7.48772805e+01 7.03006394e+01 6.45077407e+01 0.00000000e+00 2.99160960e+01 2.83332117e+01 3.43686658e+01 
        </DataArray>
        <DataArray type="Float64" Name="v">
          -6.25669491e+00 -7.67838671e+00 -1.16240168e+01 -1.63759391e+01 -3.93944909e+00 -3.12377796e+00 -5.54469552e+00 -1.03547529e+01 -2.64092056e+00 -3.05095169e+00 -6.35270158e+00 -8.72812329e+00 0.00000000e+00 -6.67777844e+00 -5.05361597e+00 -3.41225486e+00 
        </DataArray>
        <DataArray type="Float64" Name="p">
          -2.41444924e+03 -2.47397497e+03 -2.53350070e+03 -2.59302642e+03 -2.49569815e+03 -2.46961995e+03 -2.44354176e+03 -2.41746357e+03 -2.57694705e+03 -2.46526493e+03 -2.35358282e+03 -2.24190071e+03 -2.65819595e+03 -2.46090992e+03 -2.26362389e+03 -2.06633786e+03 
        </DataArray>
      </PointData>
    </Piece>
    <Piece NumberOfPoints="16" NumberOfCells="9">
      <Points>
        <DataArray type="Float64" NumberOfComponents="3" format="ascii">
          3.00000000e+00 6.00000000e+00 0.00000000e+00 
4.00000000e+00 6.00000000e+00 0.00000000e+00 
5.00000000e+00 6.00000000e+00 0.00000000e+00 
6.00000000e+00 6.00000000e+00 0.00000000e+00 
3.00000000e+00 6.33333349e+00 0.00000000e+00 
4.00000000e+00 6.33333349e+00 0.00000000e+00 
5.00000000e+00 6.33333349e+00 0.00000000e+00 
6.00000000e+00 6.33333349e+00 0.00000000e+00 
3.00000000e+00 6.66666651e+00 0.00000000e+00 
4.00000000e+00 6.66666651e+00 0.00000000e+00 
5.00000000e+00 6.66666651e+00 0.00000000e+00 
6.00000000e+00 6.66666651e+00 0.00000000e+00 
3.00000000e+00 7.00000000e+00 0.00000000e+00 
4.00000000e+00 7.00000000e+00 0.00000000e+00 
5.00000000e+00 7.00000000e+00 0.00000000e+00 
6.00000000e+00 7.00000000e+00 0.00000000e+00 

        </DataArray>
      </Points>
      <Cells>
        <DataArray type="Int32" Name="connectivity" format="ascii">
0 1 5 4
4 5 9 8
8 9 13 12
1 2 6 5
5 6 10 9
9 10 14 13
2 3 7 6
6 7 11 10
10 11 15 14

        </DataArray>
        <DataArray type="Int32" Name="offsets" format="ascii">
4 8 12 16 20 24 28 32 36 
        </DataArray>
        <DataArray type="UInt8" Name="types" format="ascii">
9 9 9 9 9 9 9 9 9 
        </DataArray>
      </Cells>
      <PointData>
        <DataArray type="Float64" Name="u">
          0.00000000e+00 2.99160960e+01 2.83332117e+01 3.43686658e+01 0.00000000e+00 4.97449680e+00 6.96727782e+00 1.17471357e+01 0.00000000e+00 -3.07651680e+00 -2.97166178e+00 -2.13598256e+00 0.00000000e+00 -5.58361096e+00 -7.64323018e+00 -1.03173560e+01 
        </DataArray>
        <DataArray type="Float64" Name="v">
          0.00000000e+00 -6.67777844e+00 -5.05361597e+00 -3.41225486e+00 0.00000000e+00 -1.16003370e+01 -7.23592056e+00 -2.99889303e+00 0.00000000e+00 -1.21408223e+01 -7.06549179e+00 -3.38535232e+00 0.00000000e+00 -1.03176768e+01 -7.10965581e+00 -3.95269662e+00 
        </DataArray>
        <DataArray type="Float64" Name="p">
          -2.64144035e+03 -2.50356509e+03 -2.36568983e+03 -2.22781457e+03 -2.54795016e+03 -2.45356619e+03 -2.35918223e+03 -2.26479826e+03 -2.45445996e+03 -2.40356729e+03 -2.35267463e+03 -2.30178196e+03 -2.36096976e+03 -2.35356839e+03 -2.34616702e+03 -2.33876565e+03 
        </DataArray>
      </PointData>
    </Piece>
    <Piece NumberOfPoints="16" NumberOfCells="9">
      <Points>
        <DataArray type="Float64" NumberOfComponents="3" format="ascii">
          3.00000000e+00 7.00000000e+00 0.00000000e+00 
4.00000000e+00 7.00000000e+00 0.00000000e+00 
5.00000000e+00 7.00000000e+00 0.00000000e+00 
6.00000000e+00 7.00000000e+00 0.00000000e+00 
3.00000000e+00 7.33333349e+00 0.00000000e+00 
4.00000000e+00 7.33333349e+00 0.00000000e+00 
5.00000000e+00 7.33333349e+00 0.00000000e+00 
6.00000000e+00 7.33333349e+00 0.00000000e+00 
3.00000000e+00 7.66666651e+00 0.00000000e+00 
4.00000000e+00 7.66666651e+00 0.00000000e+00 
5.00000000e+00 7.66666651e+00 0.00000000e+00 
6.00000000e+00 7.66666651e+00 0.00000000e+00 
3.00000000e+00 8.00000000e+00 0.00000000e+00 
4.00000000e+00 8.00000000e+00 0.00000000e+00 
5.00000000e+00 8.00000000e+00 0.00000000e+00 
6.00000000e+00 8.00000000e+00 0.00000000e+00 

        </DataArray>
      </Points>
      <Cells>
        <DataArray type="Int32" Name="connectivity" format="ascii">
0 1 5 4
4 5 9 8
8 9 13 12
1 2 6 5
5 6 10 9
9 10 14 13
2 3 7 6
6 7 11 10
10 11 15 14

        </DataArray>
        <DataArray type="Int32" Name="offsets" format="ascii">
4 8 12 16 20 24 28 32 36 
        </DataArray>
        <DataArray type="UInt8" Name="types" format="ascii">
9 9 9 9 9 9 9 9 9 
        </DataArray>
      </Cells>
      <PointData>
        <DataArray type="Float64" Name="u">
          0.00000000e+00 -5.58361096e+00 -7.64323018e+00 -1.03173560e+01 0.00000000e+00 -6.17611946e+00 -9.70899811e+00 -1.38648953e+01 0.00000000e+00 -5.80378962e+00 -9.81617193e+00 -1.45510399e+01 0.00000000e+00 -4.87709233e+00 -8.55159894e+00 -1.30946227e+01 
        </DataArray>
        <DataArray type="Float64" Name="v">
          0.00000000e+00 -1.03176768e+01 -7.10965581e+00 -3.95269662e+00 0.00000000e+00 -7.83009705e+00 -5.78006990e+00 -3.51723841e+00 0.00000000e+00 -5.75016989e+00 -4.43257223e+00 -2.80759404e+00 0.00000000e+00 -3.33250435e+00 -2.73881294e+00 -1.80081447e+00 
        </DataArray>
        <DataArray type="Float64" Name="p">
          -2.36789087e+03 -2.34719393e+03 -2.32649700e+03 -2.30580007e+03 -2.34254858e+03 -2.32554468e+03 -2.30854079e+03 -2.29153689e+03 -2.31720629e+03 -2.30389543e+03 -2.29058457e+03 -2.27727371e+03 -2.29186401e+03 -2.28224618e+03 -2.27262836e+03 -2.26301053e+03 
        </DataArray>
      </PointData>
    </Piece>
    <Piece NumberOfPoints="16" NumberOfCells="9">
      <Points>
        <DataArray type="Float64" NumberOfComponents="3" format="ascii">
          3.00000000e+00 8.00000000e+00 0.00000000e+00 
4.00000000e+00 8.00000000e+00 0.00000000e+00 
5.00000000e+00 8.00000000e+00 0.00000000e+00 
6.00000000e+00 8.00000000e+00 0.00000000e+00 
3.00000000e+00 8.33333302e+00 0.00000000e+00 
4.00000000e+00 8.33333302e+00 0.00000000e+00 
5.00000000e+00 8.33333302e+00 0.00000000e+00 
6.00000000e+00 8.33333302e+00 0.00000000e+00 
3.00000000e+00 8.66666698e+00 0.00000000e+00 
4.00000000e+00 8.66666698e+00 0.00000000e+00 
5.00000000e+00 8.66666698e+00 0.00000000e+00 
6.00000000e+00 8.66666698e+00 0.00000000e+00 
3.00000000e+00 9.00000000e+00 0.00000000e+00 
4.00000000e+00 9.00000000e+00 0.00000000e+00 
5.00000000e+00 9.00000000e+00 0.00000000e+00 
6.00000000e+00 9.00000000e+00 0.00000000e+00 

        </DataArray>
      </Points>
      <Cells>
        <DataArray type="Int32" Name="connectivity" format="ascii">
0 1 5 4
4 5 9 8
8 9 13 12
1 2 6 5
5 6 10 9
9 10 14 13
2 3 7 6
6 7 11 10
10 11 15 14

        </DataArray>
        <DataArray type="Int32" Name="offsets" format="ascii">
4 8 12 16 20 24 28 32 36 
        </DataArray>
        <DataArray type="UInt8" Name="types" format="ascii">
9 9 9 9 9 9 9 9 9 
        </DataArray>
      </Cells>
      <PointData>
        <DataArray type="Float64" Name="u">
          0.00000000e+00 -4.87709233e+00 -8.55159894e+00 -1.30946227e+01 0.00000000e+00 -3.57948544e+00 -6.30654345e+00 -1.00433145e+01 0.00000000e+00 -1.95157874e+00 -3.36499128e+00 -5.60657757e+00 0.00000000e+00 0.00000000e+00 0.00000000e+00 0.00000000e+00 
        </DataArray>
        <DataArray type="Float64" Name="v">
          0.00000000e+00 -3.33250435e+00 -2.73881294e+00 -1.80081447e+00 0.00000000e+00 -1.48623166e+00 -1.29515497e+00 -8.26857463e-01 0.00000000e+00 -4.72665114e-01 -4.44842422e-01 -2.73959800e-01 0.00000000e+00 0.00000000e+00 0.00000000e+00 0.00000000e+00 
        </DataArray>
        <DataArray type="Float64" Name="p">
          -2.29699973e+03 -2.28560989e+03 -2.27422006e+03 -2.26283022e+03 -2.30205824e+03 -2.29029136e+03 -2.27852448e+03 -2.26675760e+03 -2.30711675e+03 -2.29497282e+03 -2.28282890e+03 -2.27068497e+03 -2.31217526e+03 -2.29965429e+03 -2.28713332e+03 -2.27461235e+03 
        </DataArray>
      </PointData>
    </Piece>
    <Piece NumberOfPoints="16" NumberOfCells="9">
      <Points>
        <DataArray type="Float64" NumberOfComponents="3" format="ascii">
          6.00000000e+00 0.00000000e+00 0.00000000e+00 
7.00000000e+00 0.00000000e+00 0.00000000e+00 
8.00000000e+00 0.00000000e+00 0.00000000e+00 
9.00000000e+00 0.00000000e+00 0.00000000e+00 
6.00000000e+00 3.33333343e-01 0.00000000e+00 
7.00000000e+00 3.33333343e-01 0.00000000e+00 
8.00000000e+00 3.33333343e-01 0.00000000e+00 
9.00000000e+00 3.33333343e-01 0.00000000e+00 
6.00000000e+00 6.66666687e-01 0.00000000e+00 
7.00000000e+00 6.66666687e-01 0.00000000e+00 
8.00000000e+00 6.66666687e-01 0.00000000e+00 
9.00000000e+00 6.66666687e-01 0.00000000e+00 
6.00000000e+00 1.00000000e+00 0.00000000e+00 
7.00000000e+00 1.00000000e+00 0.00000000e+00 
8.00000000e+00 1.00000000e+00 0.00000000e+00 
9.00000000e+00 1.00000000e+00 0.00000000e+00 

        </DataArray>
      </Points>
      <Cells>
        <DataArray type="Int32" Name="connectivity" format="ascii">
0 1 5 4
4 5 9 8
8 9 13 12
1 2 6 5
5 6 10 9
9 10 14 13
2 3 7 6
6 7 11 10
10 11 15 14

        </DataArray>
        <DataArray type="Int32" Name="offsets" format="ascii">
4 8 12 16 20 24 28 32 36 
        </DataArray>
        <DataArray type="UInt8" Name="types" format="ascii">
9 9 9 9 9 9 9 9 9 
        </DataArray>
      </Cells>
      <PointData>
        <DataArray type="Float64" Name="u">