<?xml version="1.0"?>
<VTKFile type="UnstructuredGrid" version="0.1" byte_order="LittleEndian">
  <UnstructuredGrid>
    <Piece NumberOfPoints="16" NumberOfCells="9">
      <Points>
        <DataArray type="Float64" NumberOfComponents="3" format="ascii">
          0.00000000e+00 3.00000000e+00 0.00000000e+00 
1.00000000e+00 3.00000000e+00 0.00000000e+00 
2.00000000e+00 3.00000000e+00 0.00000000e+00 
3.00000000e+00 3.00000000e+00 0.00000000e+00 
0.00000000e+00 3.33333325e+00 0.00000000e+00 
1.00000000e+00 3.33333325e+00 0.00000000e+00 
2.00000000e+00 3.33333325e+00 0.00000000e+00 
3.00000000e+00 3.33333325e+00 0.00000000e+00 
0.00000000e+00 3.66666675e+00 0.00000000e+00 
1.00000000e+00 3.66666675e+00 0.00000000e+00 
2.00000000e+00 3.66666675e+00 0.00000000e+00 
3.00000000e+00 3.66666675e+00 0.00000000e+00 
0.00000000e+00 4.00000000e+00 0.00000000e+00 
1.00000000e+00 4.00000000e+00 0.00000000e+00 
2.00000000e+00 4.00000000e+00 0.00000000e+00 
3.00000000e+00 4.00000000e+00 0.00000000e+00 

        </DataArray>
      </Points>
      <Cells>
        <DataArray type="Int32" Name="connectivity" format="ascii">
0 1 5 4
4 5 9 8
8 9 13 12
1 2 6 5
5 6 10 9
9 10 14 13
2 3 7 6
6 7 11 10
10 11 15 14

        </DataArray>
        <DataArray type="Int32" Name="offsets" format="ascii">
4 8 12 16 20 24 28 32 36 
        </DataArray>
        <DataArray type="UInt8" Name="types" format="ascii">
9 9 9 9 9 9 9 9 9 
        </DataArray>
      </Cells>
      <PointData>
        <DataArray type="Float64" Name="u">
          0.00000000e+00 0.00000000e+00 0.00000000e+00 0.00000000e+00 8.88888889e+01 9.30113771e+01 9.13415477e+01 1.02070579e+02 1.55555556e+02 1.59169507e+02 1.58552856e+02 1.65580502e+02 2.00000000e+02 2.02069898e+02 2.02242974e+02 2.06389702e+02 
        </DataArray>
        <DataArray type="Float64" Name="v">
          0.00000000e+00 0.00000000e+00 0.00000000e+00 0.00000000e+00 0.00000000e+00 -1.08811113e+00 -1.62320037e+00 -4.15801978e+00 0.00000000e+00 -8.91657412e-01 -2.23521593e+00 -4.10678820e+00 0.00000000e+00 -2.23543970e+00 -4.00995723e+00 -6.60034632e+00 
        </DataArray>
        <DataArray type="Float64" Name="p">
          9.90450968e+02 -1.43229293e+02 -1.27690955e+03 -2.41058981e+03 1.00925326e+03 -1.03927433e+02 -1.21710813e+03 -2.33028882e+03 1.02805555e+03 -6.46255737e+01 -1.15730670e+03 -2.24998782e+03 1.04685784e+03 -2.53237141e+01 -1.09750527e+03 -2.16968682e+03 
        </DataArray>
      </PointData>
    </Piece>
    <Piece NumberOfPoints="16" NumberOfCells="9">
      <Points>
        <DataArray type="Float64" NumberOfComponents="3" format="ascii">
          0.00000000e+00 4.00000000e+00 0.00000000e+00 
1.00000000e+00 4.00000000e+00 0.00000000e+00 
2.00000000e+00 4.00000000e+00 0.00000000e+00 
3.00000000e+00 4.00000000e+00 0.00000000e+00 
0.00000000e+00 4.33333349e+00 0.00000000e+00 
1.00000000e+00 4.33333349e+00 0.00000000e+00 
2.00000000e+00 4.33333349e+00 0.00000000e+00 
3.00000000e+00 4.33333349e+00 0.00000000e+00 
0.00000000e+00 4.66666651e+00 0.00000000e+00 
1.00000000e+00 4.66666651e+00 0.00000000e+00 
2.00000000e+00 4.66666651e+00 0.00000000e+00 
3.00000000e+00 4.66666651e+00 0.00000000e+00 
0.00000000e+00 5.00000000e+00 0.00000000e+00 
1.00000000e+00 5.00000000e+00 0.00000000e+00 
2.00000000e+00 5.00000000e+00 0.00000000e+00 
3.00000000e+00 5.00000000e+00 0.00000000e+00 

        </DataArray>
      </Points>
      <Cells>
        <DataArray type="Int32" Name="connectivity" format="ascii">
0 1 5 4
4 5 9 8
8 9 13 12
1 2 6 5
5 6 10 9
9 10 14 13
2 3 7 6
6 7 11 10
10 11 15 14

        </DataArray>
        <DataArray type="Int32" Name="offsets" format="ascii">
4 8 12 16 20 24 28 32 36 
        </DataArray>
        <DataArray type="UInt8" Name="types" format="ascii">
9 9 9 9 9 9 9 9 9 
        </DataArray>
      </Cells>
      <PointData>
        <DataArray type="Float64" Name="u">
          2.00000000e+02 2.02069898e+02 2.02242974e+02 2.06389702e+02 2.22222222e+02 2.22805817e+02 2.22916850e+02 2.24010115e+02 2.22222222e+02 2.21153143e+02 2.21163994e+02 2.19254589e+02 2.00000000e+02 1.97493028e+02 1.97660651e+02 1.92713711e+02 
        </DataArray>
        <DataArray type="Float64" Name="v">
          0.00000000e+00 -2.23543970e+00 -4.00995723e+00 -6.60034632e+00 0.00000000e+00 -2.57120311e+00 -4.80045252e+00 -6.63225691e+00 0.00000000e+00 -2.60090276e+00 -4.70470405e+00 -6.79220746e+00 0.00000000e+00 -2.04837805e+00 -4.01674250e+00 -5.66257218e+00 
        </DataArray>
        <DataArray type="Float64" Name="p">
          1.07379973e+03 5.02382840e+00 -1.06375207e+03 -2.13252797e+03 1.26898801e+03 1.83287491e+02 -9.02413023e+02 -1.98811354e+03 1.46417629e+03 3.61551154e+02 -7.41073977e+02 -1.84369911e+03 1.65936457e+03 5.39814817e+02 -5.79734932e+02 -1.69928468e+03 
        </DataArray>
      </PointData>
    </Piece>
    <Piece NumberOfPoints="16" NumberOfCells="9">
      <Points>
        <DataArray type="Float64" NumberOfComponents="3" format="ascii">
          0.00000000e+00 5.00000000e+00 0.00000000e+00 
1.00000000e+00 5.00000000e+00 0.00000000e+00 
2.00000000e+00 5.00000000e+00 0.00000000e+00 
3.00000000e+00 5.00000000e+00 0.00000000e+00 
0.00000000e+00 5.33333349e+00 0.00000000e+00 
1.00000000e+00 5.33333349e+00 0.00000000e+00 
2.00000000e+00 5.33333349e+00 0.00000000e+00 
3.00000000e+00 5.33333349e+00 0.00000000e+00 
0.00000000e+00 5.66666651e+00 0.00000000e+00 
1.00000000e+00 5.66666651e+00 0.00000000e+00 
2.00000000e+00 5.66666651e+00 0.00000000e+00 
3.00000000e+00 5.66666651e+00 0.00000000e+00 
0.00000000e+00 6.00000000e+00 0.00000000e+00 
1.00000000e+00 6.00000000e+00 0.00000000e+00 
2.00000000e+00 6.00000000e+00 0.00000000e+00 
3.00000000e+00 6.00000000e+00 0.00000000e+00 

        </DataArray>
      </Points>
      <Cells>
        <DataArray type="Int32" Name="connectivity" format="ascii">
0 1 5 4
4 5 9 8
8 9 13 12
1 2 6 5
5 6 10 9
9 10 14 13
2 3 7 6
6 7 11 10
10 11 15 14

        </DataArray>
        <DataArray type="Int32" Name="offsets" format="ascii">
4 8 12 16 20 24 28 32 36 
        </DataArray>
        <DataArray type="UInt8" Name="types" format="ascii">
9 9 9 9 9 9 9 9 9 
        </DataArray>
      </Cells>
      <PointData>
        <DataArray type="Float64" Name="u">
          2.00000000e+02 1.97493028e+02 1.97660651e+02 1.92713711e+02 1.55555556e+02 1.52138631e+02 1.52698612e+02 1.45463965e+02 8.88888889e+01 8.56360052e+01 8.64339589e+01 7.75513087e+01 0.00000000e+00 0.00000000e+00 0.00000000e+00 0.00000000e+00 
        </DataArray>
        <DataArray type="Float64" Name="v">
          0.00000000e+00 -2.04837805e+00 -4.01674250e+00 -5.66257218e+00 0.00000000e+00 -8.25659236e-01 -2.11522237e+00 -3.54351476e+00 0.00000000e+00 -8.51021424e-01 -1.86518875e+00 -1.96514492e+00 0.00000000e+00 0.00000000e+00 0.00000000e+00 0.00000000e+00 
        </DataArray>
        <DataArray type="Float64" Name="p">
          1.66990508e+03 5.65056853e+02 -5.39791376e+02 -1.64463960e+03 1.70454036e+03 6.06140258e+02 -4.92259841e+02 -1.59065994e+03 1.73917563e+03 6.47223663e+02 -4.44728306e+02 -1.53668027e+03 1.77381091e+03 6.88307068e+02 -3.97196770e+02 -1.48270061e+03 
        </DataArray>
      </PointData>
    </Piece>
    <Piece NumberOfPoints="16" NumberOfCells="9">
      <Points>
        <DataArray type="Float64" NumberOfComponents="3" format="ascii">
          3.00000000e+00 0.00000000e+00 0.00000000e+00 
4.00000000e+00 0.00000000e+00 0.00000000e+00 
5.00000000e+00 0.00000000e+00 0.00000000e+00 
6.00000000e+00 0.00000000e+00 0.00000000e+00 
3.00000000e+00 3.33333343e-01 0.00000000e+00 
4.00000000e+00 3.33333343e-01 0.00000000e+00 
5.00000000e+00 3.33333343e-01 0.00000000e+00 
6.00000000e+00 3.33333343e-01 0.00000000e+00 
3.00000000e+00 6.66666687e-01 0.00000000e+00 
4.00000000e+00 6.66666687e-01 0.00000000e+00 
5.00000000e+00 6.66666687e-01 0.00000000e+00 
6.00000000e+00 6.66666687e-01 0.00000000e+00 
3.00000000e+00 1.00000000e+00 0.00000000e+00 
4.00000000e+00 1.00000000e+00 0.00000000e+00 
5.00000000e+00 1.00000000e+00 0.00000000e+00 
6.00000000e+00 1.00000000e+00 0.00000000e+00 

        </DataArray>
      </Points>
      <Cells>
        <DataArray type="Int32" Name="connectivity" format="ascii">
0 1 5 4
4 5 9 8
8 9 13 12
1 2 6 5
5 6 10 9
9 10 14 13
2 3 7 6
6 7 11 10
10 11 15 14

        </DataArray>
        <DataArray type="Int32" Name="offsets" format="ascii">
4 8 12 16 20 24 28 32 36 
        </DataArray>
        <DataArray type="UInt8" Name="types" format="ascii">
9 9 9 9 9 9 9 9 9 
        </DataArray>
      </Cells>
      <PointData>
        <DataArray type="Float64" Name="u">
          0.00000000e+00 0.00000000e+00 0.00000000e+00 0.00000000e+00 0.00000000e+00 -3.83782134e+00 -6.42327586e+00 -1.15778248e+01 0.00000000e+00 -6.64077948e+00 -1.13976824e+01 -2.01833638e+01 0.00000000e+00 -8.30741110e+00 -1.41302248e+01 -2.34557120e+01 
        </DataArray>
        <DataArray type="Float64" Name="v">
          0.00000000e+00 0.00000000e+00 0.00000000e+00 0.00000000e+00 0.00000000e+00 9.34083631e-01 9.85331003e-01 7.90302549e-01 0.00000000e+00 2.75513603e+00 2.78596150e+00 1.87866435e+00 0.00000000e+00 5.93846185e+00 6.05142059e+00 3.61011194e+00 
        </DataArray>
        <DataArray type="Float64" Name="p">
          -2.91991269e+03 -2.86845502e+03 -2.81699735e+03 -2.76553968e+03 -2.90954667e+03 -2.85816802e+03 -2.80678936e+03 -2.75541070e+03 -2.89918065e+03 -2.84788101e+03 -2.79658137e+03 -2.74528172e+03 -2.88881463e+03 -2.83759400e+03 -2.78637337e+03 -2.73515275e+03 
        </DataArray>
      </PointData>
    </Piece>
    <Piece NumberOfPoints="16" NumberOfCells="9">
      <Points>
        <DataArray type="Float64" NumberOfComponents="3" format="ascii">
          3.00000000e+00 1.00000000e+00 0.00000000e+00 
4.00000000e+00 1.00000000e+00 0.00000000e+00 
5.00000000e+00 1.00000000e+00 0.00000000e+00 
6.00000000e+00 1.00000000e+00 0.00000000e+00 
3.00000000e+00 1.33333337e+00 0.00000000e+00 
4.00000000e+00 1.33333337e+00 0.00000000e+00 
5.00000000e+00 1.33333337e+00 0.00000000e+00 
6.00000000e+00 1.33333337e+00 0.00000000e+00 
3.00000000e+00 1.66666663e+00 0.00000000e+00 
4.00000000e+00 1.66666663e+00 0.00000000e+00 
5.00000000e+00 1.66666663e+00 0.00000000e+00 
6.00000000e+00 1.66666663e+00 0.00000000e+00 
3.00000000e+00 2.00000000e+00 0.00000000e+00 
4.00000000e+00 2.00000000e+00 0.00000000e+00 
5.00000000e+00 2.00000000e+00 0.00000000e+00 
6.00000000e+00 2.00000000e+00 0.00000000e+00 

        </DataArray>
      </Points>
      <Cells>
        <DataArray type="Int32" Name="connectivity" format="ascii">
0 1 5 4
4 5 9 8
8 9 13 12
1 2 6 5
5 6 10 9
9 10 14 13
2 3 7 6
6 7 11 10
10 11 15 14

        </DataArray>
        <DataArray type="Int32" Name="offsets" format="ascii">
4 8 12 16 20 24 28 32 36 
        </DataArray>
        <DataArray type="UInt8" Name="types" format="ascii">
9 9 9 9 9 9 9 9 9 
        </DataArray>
      </Cells>
      <PointData>
        <DataArray type="Float64" Name="u">
          0.00000000e+00 -8.30741110e+00 -1.41302248e+01 -2.34557120e+01 0.00000000e+00 -8.73863989e+00 -1.38715933e+01 -2.08177240e+01 0.00000000e+00 -7.81215288e+00 -1.02727910e+01 -1.19928897e+01 0.00000000e+00 -5.03630018e+00 -2.79208063e+00 3.37187523e+00 
        </DataArray>
        <DataArray type="Float64" Name="v">
          0.00000000e+00 5.93846185e+00 6.05142059e+00 3.61011194e+00 0.00000000e+00 9.59898661e+00 9.04865628e+00 4.63028474e+00 0.00000000e+00 1.23642836e+01 1.08217117e+01 4.33721871e+00 0.00000000e+00 1.48084692e+01 1.09250135e+01 1.88453726e+00 
        </DataArray>
        <DataArray type="Float64" Name="p">
          -2.87860478e+03 -2.83728919e+03 -2.79597359e+03 -2.75465799e+03 -2.91485433e+03 -2.88621146e+03 -2.85756859e+03 -2.82892572e+03 -2.95110388e+03 -2.93513374e+03 -2.91916359e+03 -2.90319345e+03 -2.98735343e+03 -2.98405601e+03 -2.98075859e+03 -2.97746118e+03 
        </DataArray>
      </PointData>
    </Piece>
    <Piece NumberOfPoints="16" NumberOfCells="9">
      <Points>
        <DataArray type="Float64" NumberOfComponents="3" format="ascii">
          3.00000000e+00 2.00000000e+00 0.00000000e+00 
4.00000000e+00 2.00000000e+00 0.00000000e+00 
5.00000000e+00 2.00000000e+00 0.00000000e+00 
6.00000000e+00 2.00000000e+00 0.00000000e+00 
3.00000000e+00 2.33333325e+00 0.00000000e+00 
4.00000000e+00 2.33333325e+00 0.00000000e+00 
5.00000000e+00 2.33333325e+00 0.00000000e+00 
6.00000000e+00 2.33333325e+00 0.00000000e+00 
3.00000000e+00 2.66666675e+00 0.00000000e+00 
4.00000000e+00 2.66666675e+00 0.00000000e+00 
5.00000000e+00 2.66666675e+00 0.00000000e+00 
6.00000000e+00 2.66666675e+00 0.00000000e+00 
3.00000000e+00 3.00000000e+00 0.00000000e+00 
4.00000000e+00 3.00000000e+00 0.00000000e+00 
5.00000000e+00 3.00000000e+00 0.00000000e+00 
6.00000000e+00 3.00000000e+00 0.00000000e+00 

        </DataArray>
      </Points>
      <Cells>
        <DataArray type="Int32" Name="connectivity" format="ascii">
0 1 5 4
4 5 9 8
8 9 13 12
1 2 6 5
5 6 10 9
9 10 14 13
2 3 7 6
6 7 11 10
10 11 15 14

        </DataArray>
        <DataArray type="Int32" Name="offsets" format="ascii">
4 8 12 16 20 24 28 32 36 
        </DataArray>
        <DataArray type="UInt8" Name="types" format="ascii">
9 9 9 9 9 9 9 9 9 
        </DataArray>
      </Cells>
      <PointData>
        <DataArray type="Float64" Name="u">
          0.00000000e+00 -5.03630018e+00 -2.79208063e+00 3.37187523e+00 0.00000000e+00 9.29670679e-01 9.15936394e+00 2.69643951e+01 0.00000000e+00 1.68365402e+01 3.15895899e+01 5.81151927e+01 0.00000000e+00 5.77779373e+01 7.28103475e+01 1.00202160e+02 
        </DataArray>
        <DataArray type="Float64" Name="v">
          0.00000000e+00 1.48084692e+01 1.09250135e+01 1.88453726e+00 0.00000000e+00 1.55239095e+01 7.00038014e+00 -4.24606107e+00 0.00000000e+00 1.11731204e+01 2.33163531e+00 -8.79523243e+00 0.00000000e+00 -1.49490156e+00 -7.49864186e+00 -1.35386509e+01 
        </DataArray>
        <DataArray type="Float64" Name="p">
          -2.95247915e+03 -2.99335163e+03 -3.03422410e+03 -3.07509658e+03 -3.15314791e+03 -3.07209046e+03 -2.99103301e+03 -2.90997556e+03 -3.35381667e+03 -3.15082930e+03 -2.94784192e+03 -2.74485454e+03 -3.55448544e+03 -3.22956813e+03 -2.90465082e+03 -2.57973352e+03 
        </DataArray>
      </PointData>
    </Piece>
    <Piece NumberOfPoints="16" NumberOfCells="9">
      <Points>
        <DataArray type="Float64" NumberOfComponents="3" format="ascii">
          3.00000000e+00 3.00000000e+00 0.00000000e+00 
4.00000000e+00 3.00000000e+00 0.00000000e+00 
5.00000000e+00 3.00000000e+00 0.00000000e+00 
6.00000000e+00 3.00000000e+00 0.00000000e+00 
3.00000000e+00 3.33333325e+00 0.00000000e+00 
4.00000000e+00 3.33333325e+00 0.00000000e+00 
5.00000000e+00 3.33333325e+00 0.00000000e+00 
6.00000000e+00 3.33333325e+00 0.00000000e+00 
3.00000000e+00 3.66666675e+00 0.00000000e+00 
4.00000000e+00 3.66666675e+00 0.00000000e+00 
5.00000000e+00 3.66666675e+00 0.00000000e+00 
6.00000000e+00 3.66666675e+00 0.00000000e+00 
3.00000000e+00 4.00000000e+00 0.00000000e+00 
4.00000000e+00 4.00000000e+00 0.00000000e+00 
5.00000000e+00 4.00000000e+00 0.00000000e+00 
6.00000000e+00 4.00000000e+00 0.00000000e+00 

        </DataArray>
      </Points>
      <Cells>
        <DataArray type="Int32" Name="connectivity" format="ascii">
0 1 5 4
4 5 9 8
8 9 13 12
1 2 6 5
5 6 10 9
9 10 14 13
2 3 7 6
6 7 11 10
10 11 15 14

        </DataArray>
        <DataArray type="Int32" Name="offsets" format="ascii">
4 8 12 16 20 24 28 32 36 
        </DataArray>
        <DataArray type="UInt8" Name="types" format="ascii">
9 9 9 9 9 9 9 9 9 
        </DataArray>
      </Cells>
      <PointData>
        <DataArray type="Float64" Name="u">
          0.00000000e+00 5.77779373e+01 7.28103475e+01 1.00202160e+02 1.02070579e+02 1.12723984e+02 1.27348437e+02 1.42147458e+02 1.65580502e+02 1.66808363e+02 1.74552536e+02 1.79995130e+02 2.06389702e+02 2.02221055e+02 2.05859033e+02 2.02553102e+02 
        </DataArray>
        <DataArray type="Float64" Name="v">
          0.00000000e+00 -1.49490156e+00 -7.49864186e+00 -1.35386509e+01 -4.15801978e+00 -1.30493854e+01 -1.58913589e+01 -1.66244840e+01 -4.10678820e+00 -1.31374588e+01 -1.74033844e+01 -1.87565989e+01 -6.60034632e+00 -1.41212004e+01 -1.86020207e+01 -2.23626326e+01 
        </DataArray>
        <DataArray type="Float64" Name="p">
          -3.71050629e+03 -3.30613820e+03 -2.90177012e+03 -2.49740203e+03 -3.16986373e+03 -2.96397525e+03 -2.75808678e+03 -2.55219831e+03 -2.62922116e+03 -2.62181230e+03 -2.61440344e+03 -2.60699459e+03 -2.08857860e+03 -2.27964935e+03 -2.47072011e+03 -2.66179086e+03 
        </DataArray>
      </PointData>
    </Piece>
    <Piece NumberOfPoints="16" NumberOfCells="9">
      <Points>
        <DataArray type="Float64" NumberOfComponents="3" format="ascii">
          3.00000000e+00 4.00000000e+00 0.00000000e+00 
4.00000000e+00 4.00000000e+00 0.00000000e+00 
5.00000000e+00 4.00000000e+00 0.00000000e+00 
6.00000000e+00 4.00000000e+00 0.00000000e+00 
3.00000000e+00 4.33333349e+00 0.00000000e+00 
4.00000000e+00 4.33333349e+00 0.00000000e+00 
5.00000000e+00 4.33333349e+00 0.00000000e+00 
6.00000000e+00 4.33333349e+00 0.00000000e+00 
3.00000000e+00 4.66666651e+00 0.00000000e+00 
4.00000000e+00 4.66666651e+00 0.00000000e+00 
5.00000000e+00 4.66666651e+00 0.00000000e+00 
6.00000000e+00 4.66666651e+00 0.00000000e+00 
3.00000000e+00 5.00000000e+00 0.00000000e+00 
4.00000000e+00 5.00000000e+00 0.00000000e+00 
5.00000000e+00 5.00000000e+00 0.00000000e+00 
6.00000000e+00 5.00000000e+00 0.00000000e+00 

        </DataArray>
      </Points>
      <Cells>
        <DataArray type="Int32" Name="connectivity" format="ascii">
0 1 5 4
4 5 9 8
8 9 13 12
1 2 6 5
5 6 10 9
9 10 14 13
2 3 7 6
6 7 11 10
10 11 15 14

        </DataArray>
        <DataArray type="Int32" Name="offsets" format="ascii">
4 8 12 16 20 24 28 32 36 
        </DataArray>
        <DataArray type="UInt8" Name="types" format="ascii">
9 9 9 9 9 9 9 9 9 
        </DataArray>
      </Cells>
      <PointData>
        <DataArray type="Float64" Name="u">
          2.06389702e+02 2.02221055e+02 2.05859033e+02 2.02553102e+02 2.24010115e+02 2.17341707e+02 2.15507593e+02 2.07096105e+02 2.19254589e+02 2.10183234e+02 2.04575111e+02 1.91576076e+02 1.92713711e+02 1.82703881e+02 1.74766076e+02 1.59662999e+02 
        </DataArray>
        <DataArray type="Float64" Name="v">
          -6.60034632e+00 -1.41212004e+01 -1.86020207e+01 -2.23626326e+01 -6.63225691e+00 -1.14101996e+01 -1.67118568e+01 -2.16968756e+01 -6.79220746e+00 -1.08623192e+01 -1.46796773e+01 -1.93967314e+01 -5.66257218e+00 -6.20496299e+00 -1.01844519e+01 -1.54135314e+01 
        </DataArray>
        <DataArray type="Float64" Name="p">
          -1.92921279e+03 -2.15644318e+03 -2.38367357e+03 -2.61090396e+03 -1.60950380e+03 -1.80693852e+03 -2.00437323e+03 -2.20180794e+03 -1.28979482e+03 -1.45743385e+03 -1.62507288e+03 -1.79271192e+03 -9.70085830e+02 -1.10792919e+03 -1.24577254e+03 -1.38361590e+03 
        </DataArray>
      </PointData>
    </Piece>
    <Piece NumberOfPoints="16" NumberOfCells="9">
      <Points>
        <DataArray type="Float64" NumberOfComponents="3" format="ascii">
          3.00000000e+00 5.00000000e+00 0.00000000e+00 
4.00000000e+00 5.00000000e+00 0.00000000e+00 
5.00000000e+00 5.00000000e+00 0.00000000e+00 
6.00000000e+00 5.00000000e+00 0.00000000e+00 
3.00000000e+00 5.33333349e+00 0.00000000e+00 
4.00000000e+00 5.33333349e+00 0.00000000e+00 
5.00000000e+00 5.33333349e+00 0.00000000e+00 
6.00000000e+00 5.33333349e+00 0.00000000e+00 
3.00000000e+00 5.66666651e+00 0.00000000e+00 
4.00000000e+00 5.66666651e+00 0.00000000e+00 
5.00000000e+00 5.66666651e+00 0.00000000e+00 
6.00000000e+00 5.66666651e+00 0.00000000e+00 
3.00000000e+00 6.00000000e+00 0.00000000e+00 
4.00000000e+00 6.00000000e+00 0.00000000e+00 
5.00000000e+00 6.00000000e+00 0.00000000e+00 
6.00000000e+00 6.00000000e+00 0.00000000e+00 

        </DataArray>
      </Points>
      <Cells>
        <DataArray type="Int32" Name="connectivity" format="ascii">
0 1 5 4
4 5 9 8
8 9 13 12
1 2 6 5
5 6 10 9
9 10 14 13
2 3 7 6
6 7 11 10
10 11 15 14

        </DataArray>
        <DataArray type="Int32" Name="offsets" format="ascii">
4 8 12 16 20 24 28 32 36 
        </DataArray>
        <DataArray type="UInt8" Name="types" format="ascii">
9 9 9 9 9 9 9 9 9 
        </DataArray>
      </Cells>
      <PointData>
        <DataArray type="Float64" Name="u">
          1.92713711e+02 1.82703881e+02 1.74766076e+02 1.59662999e+02 1.45463965e+02 1.36189225e+02 1.28568376e+02 1.16083488e+02 7.75513087e+01 7.93173251e+01 7.62098389e+01 7.22208103e+01 0.00000000e+00 3.47580841e+01 3.39664577e+01 4.15461830e+01 
        </DataArray>
        <DataArray type="Float64" Name="v">
          -5.66257218e+00 -6.20496299e+00 -1.01844519e+01 -1.54135314e+01 -3.54351476e+00 -1.86176821e+00 -4.61693016e+00 -1.01749149e+01 -1.96514492e+00 -1.85434929e+00 -5.39049614e+00 -8.20229489e+00 0.00000000e+00 -6.65094979e+00 -5.02172783e+00 -3.34716428e+00 
        </DataArray>
        <DataArray type="Float64" Name="p">
          -1.05146413e+03 -1.10891252e+03 -1.16636090e+03 -1.22380929e+03 -1.19888391e+03 -1.13563628e+03 -1.07238865e+03 -1.00914102e+03 -1.34630370e+03 -1.16236005e+03 -9.78416395e+02 -7.94472743e+02 -1.49372348e+03 -1.18908381e+03 -8.84444140e+02 -5.79804468e+02 
        </DataArray>
      </PointData>
    </Piece>
    <Piece NumberOfPoints="16" NumberOfCells="9">
      <Points>
        <DataArray type="Float64" NumberOfComponents="3" format="ascii">
          3.00000000e+00 6.00000000e+00 0.00000000e+00 
4.00000000e+00 6.00000000e+00 0.00000000e+00 
5.00000000e+00 6.00000000e+00 0.00000000e+00 
6.00000000e+00 6.00000000e+00 0.00000000e+00 
3.00000000e+00 6.33333349e+00 0.00000000e+00 
4.00000000e+00 6.33333349e+00 0.00000000e+00 
5.00000000e+00 6.33333349e+00 0.00000000e+00 
6.00000000e+00 6.33333349e+00 0.00000000e+00 
3.00000000e+00 6.66666651e+00 0.00000000e+00 
4.00000000e+00 6.66666651e+00 0.00000000e+00 
5.00000000e+00 6.66666651e+00 0.00000000e+00 
6.00000000e+00 6.66666651e+00 0.00000000e+00 
3.00000000e+00 7.00000000e+00 0.00000000e+00 
4.00000000e+00 7.00000000e+00 0.00000000e+00 
5.00000000e+00 7.00000000e+00 0.00000000e+00 
6.00000000e+00 7.00000000e+00 0.00000000e+00 

        </DataArray>
      </Points>
      <Cells>
        <DataArray type="Int32" Name="connectivity" format="ascii">
0 1 5 4
4 5 9 8
8 9 13 12
1 2 6 5
5 6 10 9
9 10 14 13
2 3 7 6
6 7 11 10
10 11 15 14

        </DataArray>
        <DataArray type="Int32" Name="offsets" format="ascii">
4 8 12 16 20 24 28 32 36 
        </DataArray>
        <DataArray type="UInt8" Name="types" format="ascii">
9 9 9 9 9 9 9 9 9 
        </DataArray>
      </Cells>
      <PointData>
        <DataArray type="Float64" Name="u">
          0.00000000e+00 3.47580841e+01 3.39664577e+01 4.15461830e+01 0.00000000e+00 7.33706398e+00 1.03656342e+01 1.64360341e+01 0.00000000e+00 -2.67492547e+00 -1.68568980e+00 7.45387648e-02 0.00000000e+00 -6.14113148e+00 -7.72153881e+00 -1.02544945e+01 
        </DataArray>
        <DataArray type="Float64" Name="v">
          0.00000000e+00 -6.65094979e+00 -5.02172783e+00 -3.34716428e+00 0.00000000e+00 -1.28184260e+01 -7.75376937e+00 -2.79735544e+00 0.00000000e+00 -1.39629226e+01 -7.99380776e+00 -3.25977735e+00 0.00000000e+00 -1.21467227e+01 -8.24652618e+00 -4.12658608e+00 
        </DataArray>
        <DataArray type="Float64" Name="p">
          -1.46835031e+03 -1.23667627e+03 -1.00500223e+03 -7.73328197e+02 -1.32406066e+03 -1.16161324e+03 -9.99165813e+02 -8.36718388e+02 -1.17977102e+03 -1.08655020e+03 -9.93329392e+02 -9.00108580e+02 -1.03548137e+03 -1.01148717e+03 -9.87492971e+02 -9.63498772e+02 
        </DataArray>
      </PointData>
    </Piece>
    <Piece NumberOfPoints="16" NumberOfCells="9">
      <Points>
        <DataArray type="Float64" NumberOfComponents="3" format="ascii">
          3.00000000e+00 7.00000000e+00 0.00000000e+00 
4.00000000e+00 7.00000000e+00 0.00000000e+00 
5.00000000e+00 7.00000000e+00 0.00000000e+00 
6.00000000e+00 7.00000000e+00 0.00000000e+00 
3.00000000e+00 7.33333349e+00 0.00000000e+00 
4.00000000e+00 7.33333349e+00 0.00000000e+00 
5.00000000e+00 7.33333349e+00 0.00000000e+00 
6.00000000e+00 7.33333349e+00 0.00000000e+00 
3.00000000e+00 7.66666651e+00 0.00000000e+00 
4.00000000e+00 7.66666651e+00 0.00000000e+00 
5.00000000e+00 7.66666651e+00 0.00000000e+00 
6.00000000e+00 7.66666651e+00 0.00000000e+00 
3.00000000e+00 8.00000000e+00 0.00000000e+00 
4.00000000e+00 8.00000000e+00 0.00000000e+00 
5.00000000e+00 8.00000000e+00 0.00000000e+00 
6.00000000e+00 8.00000000e+00 0.00000000e+00 

        </DataArray>
      </Points>
      <Cells>
        <DataArray type="Int32" Name="connectivity" format="ascii">
0 1 5 4
4 5 9 8
8 9 13 12
1 2 6 5
5 6 10 9
9 10 14 13
2 3 7 6
6 7 11 10
10 11 15 14

        </DataArray>
        <DataArray type="Int32" Name="offsets" format="ascii">
4 8 12 16 20 24 28 32 36 
        </DataArray>
        <DataArray type="UInt8" Name="types" format="ascii">
9 9 9 9 9 9 9 9 9 
        </DataArray>
      </Cells>
      <PointData>
        <DataArray type="Float64" Name="u">
          0.00000000e+00 -6.14113148e+00 -7.72153881e+00 -1.02544945e+01 0.00000000e+00 -7.22068587e+00 -1.06943113e+01 -1.52900723e+01 0.00000000e+00 -7.02948885e+00 -1.12897285e+01 -1.68395408e+01 0.00000000e+00 -6.07389065e+00 -1.01366393e+01 -1.56466323e+01 
        </DataArray>
        <DataArray type="Float64" Name="v">
          0.00000000e+00 -1.21467227e+01 -8.24652618e+00 -4.12658608e+00 0.00000000e+00 -9.41378057e+00 -6.87435021e+00 -3.85188908e+00 0.00000000e+00 -6.99644110e+00 -5.33076711e+00 -3.14844992e+00 0.00000000e+00 -4.13171406e+00 -3.36018218e+00 -2.06732209e+00 
        </DataArray>
        <DataArray type="Float64" Name="p">
          -1.04730512e+03 -1.00313486e+03 -9.58964608e+02 -9.14794352e+02 -1.00651049e+03 -9.69140361e+02 -9.31770231e+02 -8.94400100e+02 -9.65715862e+02 -9.35145858e+02 -9.04575853e+02 -8.74005849e+02 -9.24921233e+02 -9.01151355e+02 -8.77381476e+02 -8.53611598e+02 
        </DataArray>
      </PointData>
    </Piece>
    <Piece NumberOfPoints="16" NumberOfCells="9">
      <Points>
        <DataArray type="Float64" NumberOfComponents="3" format="ascii">
          3.00000000e+00 8.00000000e+00 0.00000000e+00 
4.00000000e+00 8.00000000e+00 0.00000000e+00 
5.00000000e+00 8.00000000e+00 0.00000000e+00 
6.00000000e+00 8.00000000e+00 0.00000000e+00 
3.00000000e+00 8.33333302e+00 0.00000000e+00 
4.00000000e+00 8.33333302e+00 0.00000000e+00 
5.00000000e+00 8.33333302e+00 0.00000000e+00 
6.00000000e+00 8.33333302e+00 0.00000000e+00 
3.00000000e+00 8.66666698e+00 0.00000000e+00 
4.00000000e+00 8.66666698e+00 0.00000000e+00 
5.00000000e+00 8.66666698e+00 0.00000000e+00 
6.00000000e+00 8.66666698e+00 0.00000000e+00 
3.00000000e+00 9.00000000e+00 0.00000000e+00 
4.00000000e+00 9.00000000e+00 0.00000000e+00 
5.00000000e+00 9.00000000e+00 0.00000000e+00 
6.00000000e+00 9.00000000e+00 0.00000000e+00 

        </DataArray>
      </Points>
      <Cells>
        <DataArray type="Int32" Name="connectivity" format="ascii">
0 1 5 4
4 5 9 8
8 9 13 12
1 2 6 5
5 6 10 9
9 10 14 13
2 3 7 6
6 7 11 10
10 11 15 14

        </DataArray>
        <DataArray type="Int32" Name="offsets" format="ascii">
4 8 12 16 20 24 28 32 36 
        </DataArray>
        <DataArray type="UInt8" Name="types" format="ascii">
9 9 9 9 9 9 9 9 9 
        </DataArray>
      </Cells>
      <PointData>
        <DataArray type="Float64" Name="u">
          0.00000000e+00 -6.07389065e+00 -1.01366393e+01 -1.56466323e+01 0.00000000e+00 -4.57553086e+00 -7.66052670e+00 -1.23028095e+01 0.00000000e+00 -2.56088003e+00 -4.17285817e+00 -7.02465723e+00 0.00000000e+00 0.00000000e+00 0.00000000e+00 0.00000000e+00 
        </DataArray>
        <DataArray type="Float64" Name="v">
          0.00000000e+00 -4.13171406e+00 -3.36018218e+00 -2.06732209e+00 0.00000000e+00 -1.86708130e+00 -1.61090844e+00 -9.56330113e-01 0.00000000e+00 -6.05985060e-01 -5.64260324e-01 -3.19810409e-01 0.00000000e+00 0.00000000e+00 0.00000000e+00 0.00000000e+00 
        </DataArray>
        <DataArray type="Float64" Name="p">
          -9.32195432e+02 -9.05408031e+02 -8.78620629e+02 -8.51833228e+02 -9.40462440e+02 -9.12935785e+02 -8.85409130e+02 -8.57882475e+02 -9.48729448e+02 -9.20463539e+02 -8.92197631e+02 -8.63931722e+02 -9.56996456e+02 -9.27991294e+02 -8.98986132e+02 -8.69980970e+02 
        </DataArray>
      </PointData>
    </Piece>
    <Piece NumberOfPoints="16" NumberOfCells="9">
      <Points>
        <DataArray type="Float64" NumberOfComponents="3" format="ascii">
          6.00000000e+00 0.00000000e+00 0.00000000e+00 
7.00000000e+00 0.00000000e+00 0.00000000e+00 
8.00000000e+00 0.00000000e+00 0.00000000e+00 
9.00000000e+00 0.00000000e+00 0.00000000e+00 
6.00000000e+00 3.33333343e-01 0.00000000e+00 
7.00000000e+00 3.33333343e-01 0.00000000e+00 
8.00000000e+00 3.33333343e-01 0.00000000e+00 
9.00000000e+00 3.33333343e-01 0.00000000e+00 
6.00000000e+00 6.66666687e-01 0.00000000e+00 
7.00000000e+00 6.66666687e-01 0.00000000e+00 
8.00000000e+00 6.66666687e-01 0.00000000e+00 
9.00000000e+00 6.66666687e-01 0.00000000e+00 
6.00000000e+00 1.00000000e+00 0.00000000e+00 
7.00000000e+00 1.00000000e+00 0.00000000e+00 
8.00000000e+00 1.00000000e+00 0.00000000e+00 
9.00000000e+00 1.00000000e+00 0.00000000e+00 

        </DataArray>
      </Points>
      <Cells>
        <DataArray type="Int32" Name="connectivity" format="ascii">
0 1 5 4
4 5 9 8
8 9 13 12
1 2 6 5
5 6 10 9
9 10 14 13
2 3 7 6
6 7 11 10
10 11 15 14

        </DataArray>
        <DataArray type="Int32" Name="offsets" format="ascii">
4 8 12 16 20 24 28 32 36 
        </DataArray>
        <DataArray type="UInt8" Name="types" format="ascii">
9 9 9 9 9 9 9 9 9 
        </DataArray>
      </Cells>
      <PointData>
        <DataArray type="Float64" Name="u">