<?xml version="1.0"?>
<VTKFile type="UnstructuredGrid" version="0.1" byte_order="LittleEndian">
  <UnstructuredGrid>
    <Piece NumberOfPoints="16" NumberOfCells="9">
      <Points>
        <DataArray type="Float64" NumberOfComponents="3" format="ascii">
          0.00000000e+00 3.00000000e+00 0.00000000e+00 
1.00000000e+00 3.00000000e+00 0.00000000e+00 
2.00000000e+00 3.00000000e+00 0.00000000e+00 
3.00000000e+00 3.00000000e+00 0.00000000e+00 
0.00000000e+00 3.33333325e+00 0.00000000e+00 
1.00000000e+00 3.33333325e+00 0.00000000e+00 
2.00000000e+00 3.33333325e+00 0.00000000e+00 
3.00000000e+00 3.33333325e+00 0.00000000e+00 
0.00000000e+00 3.66666675e+00 0.00000000e+00 
1.00000000e+00 3.66666675e+00 0.00000000e+00 
2.00000000e+00 3.66666675e+00 0.00000000e+00 
3.00000000e+00 3.66666675e+00 0.00000000e+00 
0.00000000e+00 4.00000000e+00 0.00000000e+00 
1.00000000e+00 4.00000000e+00 0.00000000e+00 
2.00000000e+00 4.00000000e+00 0.00000000e+00 
3.00000000e+00 4.00000000e+00 0.00000000e+00 

        </DataArray>
      </Points>
      <Cells>
        <DataArray type="Int32" Name="connectivity" format="ascii">
0 1 5 4
4 5 9 8
8 9 13 12
1 2 6 5
5 6 10 9
9 10 14 13
2 3 7 6
6 7 11 10
10 11 15 14

        </DataArray>
        <DataArray type="Int32" Name="offsets" format="ascii">
4 8 12 16 20 24 28 32 36 
        </DataArray>
        <DataArray type="UInt8" Name="types" format="ascii">
9 9 9 9 9 9 9 9 9 
        </DataArray>
      </Cells>
      <PointData>
        <DataArray type="Float64" Name="u">
          0.00000000e+00 0.00000000e+00 0.00000000e+00 0.00000000e+00 8.88888889e+01 9.42524778e+01 9.19625882e+01 1.04620401e+02 1.55555556e+02 1.59781235e+02 1.58840013e+02 1.66544125e+02 2.00000000e+02 2.02422740e+02 2.02261633e+02 2.07267139e+02 
        </DataArray>
        <DataArray type="Float64" Name="v">
          0.00000000e+00 0.00000000e+00 0.00000000e+00 0.00000000e+00 0.00000000e+00 -1.49338518e+00 -2.19140379e+00 -4.38582690e+00 0.00000000e+00 -1.04147051e+00 -2.54357160e+00 -4.37294672e+00 0.00000000e+00 -2.69669654e+00 -4.64792145e+00 -7.10860706e+00 
        </DataArray>
        <DataArray type="Float64" Name="p">
          -1.41967060e+03 -2.18463262e+03 -2.94959463e+03 -3.71455665e+03 -1.38324993e+03 -2.13502068e+03 -2.88679143e+03 -3.63856218e+03 -1.34682926e+03 -2.08540875e+03 -2.82398823e+03 -3.56256772e+03 -1.31040860e+03 -2.03579682e+03 -2.76118503e+03 -3.48657325e+03 
        </DataArray>
      </PointData>
    </Piece>
    <Piece NumberOfPoints="16" NumberOfCells="9">
      <Points>
        <DataArray type="Float64" NumberOfComponents="3" format="ascii">
          0.00000000e+00 4.00000000e+00 0.00000000e+00 
1.00000000e+00 4.00000000e+00 0.00000000e+00 
2.00000000e+00 4.00000000e+00 0.00000000e+00 
3.00000000e+00 4.00000000e+00 0.00000000e+00 
0.00000000e+00 4.33333349e+00 0.00000000e+00 
1.00000000e+00 4.33333349e+00 0.00000000e+00 
2.00000000e+00 4.33333349e+00 0.00000000e+00 
3.00000000e+00 4.33333349e+00 0.00000000e+00 
0.00000000e+00 4.66666651e+00 0.00000000e+00 
1.00000000e+00 4.66666651e+00 0.00000000e+00 
2.00000000e+00 4.66666651e+00 0.00000000e+00 
3.00000000e+00 4.66666651e+00 0.00000000e+00 
0.00000000e+00 5.00000000e+00 0.00000000e+00 
1.00000000e+00 5.00000000e+00 0.00000000e+00 
2.00000000e+00 5.00000000e+00 0.00000000e+00 
3.00000000e+00 5.00000000e+00 0.00000000e+00 

        </DataArray>
      </Points>
      <Cells>
        <DataArray type="Int32" Name="connectivity" format="ascii">
0 1 5 4
4 5 9 8
8 9 13 12
1 2 6 5
5 6 10 9
9 10 14 13
2 3 7 6
6 7 11 10
10 11 15 14

        </DataArray>
        <DataArray type="Int32" Name="offsets" format="ascii">
4 8 12 16 20 24 28 32 36 
        </DataArray>
        <DataArray type="UInt8" Name="types" format="ascii">
9 9 9 9 9 9 9 9 9 
        </DataArray>
      </Cells>
      <PointData>
        <DataArray type="Float64" Name="u">
          2.00000000e+02 2.02422740e+02 2.02261633e+02 2.07267139e+02 2.22222222e+02 2.23066184e+02 2.22927747e+02 2.24255976e+02 2.22222222e+02 2.21288055e+02 2.21007785e+02 2.19199860e+02 2.00000000e+02 1.97537446e+02 1.97365683e+02 1.92196279e+02 
        </DataArray>
        <DataArray type="Float64" Name="v">
          0.00000000e+00 -2.69669654e+00 -4.64792145e+00 -7.10860706e+00 0.00000000e+00 -3.09782687e+00 -5.50497972e+00 -7.27260990e+00 0.00000000e+00 -3.11247514e+00 -5.44061964e+00 -7.33401671e+00 0.00000000e+00 -2.56119186e+00 -4.67045315e+00 -6.28005780e+00 
        </DataArray>
        <DataArray type="Float64" Name="p">
          -1.28455792e+03 -2.00675768e+03 -2.72895744e+03 -3.45115720e+03 -1.04010982e+03 -1.80350426e+03 -2.56689871e+03 -3.33029315e+03 -7.95661715e+02 -1.60025084e+03 -2.40483997e+03 -3.20942910e+03 -5.51213615e+02 -1.39699743e+03 -2.24278124e+03 -3.08856505e+03 
        </DataArray>
      </PointData>
    </Piece>
    <Piece NumberOfPoints="16" NumberOfCells="9">
      <Points>
        <DataArray type="Float64" NumberOfComponents="3" format="ascii">
          0.00000000e+00 5.00000000e+00 0.00000000e+00 
1.00000000e+00 5.00000000e+00 0.00000000e+00 
2.00000000e+00 5.00000000e+00 0.00000000e+00 
3.00000000e+00 5.00000000e+00 0.00000000e+00 
0.00000000e+00 5.33333349e+00 0.00000000e+00 
1.00000000e+00 5.33333349e+00 0.00000000e+00 
2.00000000e+00 5.33333349e+00 0.00000000e+00 
3.00000000e+00 5.33333349e+00 0.00000000e+00 
0.00000000e+00 5.66666651e+00 0.00000000e+00 
1.00000000e+00 5.66666651e+00 0.00000000e+00 
2.00000000e+00 5.66666651e+00 0.00000000e+00 
3.00000000e+00 5.66666651e+00 0.00000000e+00 
0.00000000e+00 6.00000000e+00 0.00000000e+00 
1.00000000e+00 6.00000000e+00 0.00000000e+00 
2.00000000e+00 6.00000000e+00 0.00000000e+00 
3.00000000e+00 6.00000000e+00 0.00000000e+00 

        </DataArray>
      </Points>
      <Cells>
        <DataArray type="Int32" Name="connectivity" format="ascii">
0 1 5 4
4 5 9 8
8 9 13 12
1 2 6 5
5 6 10 9
9 10 14 13
2 3 7 6
6 7 11 10
10 11 15 14

        </DataArray>
        <DataArray type="Int32" Name="offsets" format="ascii">
4 8 12 16 20 24 28 32 36 
        </DataArray>
        <DataArray type="UInt8" Name="types" format="ascii">
9 9 9 9 9 9 9 9 9 
        </DataArray>
      </Cells>
      <PointData>
        <DataArray type="Float64" Name="u">
          2.00000000e+02 1.97537446e+02 1.97365683e+02 1.92196279e+02 1.55555556e+02 1.51758012e+02 1.52046367e+02 1.44375383e+02 8.88888889e+01 8.45335595e+01 8.54776423e+01 7.46953086e+01 0.00000000e+00 0.00000000e+00 0.00000000e+00 0.00000000e+00 
        </DataArray>
        <DataArray type="Float64" Name="v">
          0.00000000e+00 -2.56119186e+00 -4.67045315e+00 -6.28005780e+00 0.00000000e+00 -1.02772890e+00 -2.41805919e+00 -3.95217277e+00 0.00000000e+00 -1.28245461e+00 -2.34301876e+00 -2.67632722e+00 0.00000000e+00 0.00000000e+00 0.00000000e+00 0.00000000e+00 
        </DataArray>
        <DataArray type="Float64" Name="p">
          -5.33708297e+02 -1.36799378e+03 -2.20227926e+03 -3.03656474e+03 -4.87060631e+02 -1.31859905e+03 -2.15013748e+03 -2.98167590e+03 -4.40412964e+02 -1.26920433e+03 -2.09799569e+03 -2.92678706e+03 -3.93765298e+02 -1.21980961e+03 -2.04585391e+03 -2.87189822e+03 
        </DataArray>
      </PointData>
    </Piece>
    <Piece NumberOfPoints="16" NumberOfCells="9">
      <Points>
        <DataArray type="Float64" NumberOfComponents="3" format="ascii">
          3.00000000e+00 0.00000000e+00 0.00000000e+00 
4.00000000e+00 0.00000000e+00 0.00000000e+00 
5.00000000e+00 0.00000000e+00 0.00000000e+00 
6.00000000e+00 0.00000000e+00 0.00000000e+00 
3.00000000e+00 3.33333343e-01 0.00000000e+00 
4.00000000e+00 3.33333343e-01 0.00000000e+00 
5.00000000e+00 3.33333343e-01 0.00000000e+00 
6.00000000e+00 3.33333343e-01 0.00000000e+00 
3.00000000e+00 6.66666687e-01 0.00000000e+00 
4.00000000e+00 6.66666687e-01 0.00000000e+00 
5.00000000e+00 6.66666687e-01 0.00000000e+00 
6.00000000e+00 6.66666687e-01 0.00000000e+00 
3.00000000e+00 1.00000000e+00 0.00000000e+00 
4.00000000e+00 1.00000000e+00 0.00000000e+00 
5.00000000e+00 1.00000000e+00 0.00000000e+00 
6.00000000e+00 1.00000000e+00 0.00000000e+00 

        </DataArray>
      </Points>
      <Cells>
        <DataArray type="Int32" Name="connectivity" format="ascii">
0 1 5 4
4 5 9 8
8 9 13 12
1 2 6 5
5 6 10 9
9 10 14 13
2 3 7 6
6 7 11 10
10 11 15 14

        </DataArray>
        <DataArray type="Int32" Name="offsets" format="ascii">
4 8 12 16 20 24 28 32 36 
        </DataArray>
        <DataArray type="UInt8" Name="types" format="ascii">
9 9 9 9 9 9 9 9 9 
        </DataArray>
      </Cells>
      <PointData>
        <DataArray type="Float64" Name="u">
          0.00000000e+00 0.00000000e+00 0.00000000e+00 0.00000000e+00 0.00000000e+00 -2.79377571e+00 -5.27599357e+00 -8.71629574e+00 0.00000000e+00 -5.09248577e+00 -9.68102810e+00 -1.66211776e+01 0.00000000e+00 -6.66009350e+00 -1.25201884e+01 -2.06443455e+01 
        </DataArray>
        <DataArray type="Float64" Name="v">
          0.00000000e+00 0.00000000e+00 0.00000000e+00 0.00000000e+00 0.00000000e+00 7.37238114e-01 6.60623999e-01 5.25711669e-01 0.00000000e+00 2.21327650e+00 2.07755802e+00 1.57468737e+00 0.00000000e+00 4.86234678e+00 4.85290920e+00 3.07315386e+00 
        </DataArray>
        <DataArray type="Float64" Name="p">
          -4.35731079e+03 -4.34219824e+03 -4.32708568e+03 -4.31197313e+03 -4.35260596e+03 -4.33607433e+03 -4.31954269e+03 -4.30301106e+03 -4.34790114e+03 -4.32995042e+03 -4.31199970e+03 -4.29404899e+03 -4.34319631e+03 -4.32382651e+03 -4.30445671e+03 -4.28508691e+03 
        </DataArray>
      </PointData>
    </Piece>
    <Piece NumberOfPoints="16" NumberOfCells="9">
      <Points>
        <DataArray type="Float64" NumberOfComponents="3" format="ascii">
          3.00000000e+00 1.00000000e+00 0.00000000e+00 
4.00000000e+00 1.00000000e+00 0.00000000e+00 
5.00000000e+00 1.00000000e+00 0.00000000e+00 
6.00000000e+00 1.00000000e+00 0.00000000e+00 
3.00000000e+00 1.33333337e+00 0.00000000e+00 
4.00000000e+00 1.33333337e+00 0.00000000e+00 
5.00000000e+00 1.33333337e+00 0.00000000e+00 
6.00000000e+00 1.33333337e+00 0.00000000e+00 
3.00000000e+00 1.66666663e+00 0.00000000e+00 
4.00000000e+00 1.66666663e+00 0.00000000e+00 
5.00000000e+00 1.66666663e+00 0.00000000e+00 
6.00000000e+00 1.66666663e+00 0.00000000e+00 
3.00000000e+00 2.00000000e+00 0.00000000e+00 
4.00000000e+00 2.00000000e+00 0.00000000e+00 
5.00000000e+00 2.00000000e+00 0.00000000e+00 
6.00000000e+00 2.00000000e+00 0.00000000e+00 

        </DataArray>
      </Points>
      <Cells>
        <DataArray type="Int32" Name="connectivity" format="ascii">
0 1 5 4
4 5 9 8
8 9 13 12
1 2 6 5
5 6 10 9
9 10 14 13
2 3 7 6
6 7 11 10
10 11 15 14

        </DataArray>
        <DataArray type="Int32" Name="offsets" format="ascii">
4 8 12 16 20 24 28 32 36 
        </DataArray>
        <DataArray type="UInt8" Name="types" format="ascii">
9 9 9 9 9 9 9 9 9 
        </DataArray>
      </Cells>
      <PointData>
        <DataArray type="Float64" Name="u">
          0.00000000e+00 -6.66009350e+00 -1.25201884e+01 -2.06443455e+01 0.00000000e+00 -7.31687138e+00 -1.29371052e+01 -1.95592582e+01 0.00000000e+00 -6.91918950e+00 -1.03704260e+01 -1.28916430e+01 0.00000000e+00 -5.04429190e+00 -4.10388133e+00 6.02324451e-02 
        </DataArray>
        <DataArray type="Float64" Name="v">
          0.00000000e+00 4.86234678e+00 4.85290920e+00 3.07315386e+00 0.00000000e+00 8.07873614e+00 7.55901881e+00 4.58384747e+00 0.00000000e+00 1.05850725e+01 9.29100415e+00 4.70702430e+00 0.00000000e+00 1.30132595e+01 9.80529012e+00 3.07554510e+00 
        </DataArray>
        <DataArray type="Float64" Name="p">
          -4.33624166e+03 -4.32238322e+03 -4.30852479e+03 -4.29466636e+03 -4.36062691e+03 -4.35519615e+03 -4.34976539e+03 -4.34433463e+03 -4.38501217e+03 -4.38800908e+03 -4.39100599e+03 -4.39400290e+03 -4.40939742e+03 -4.42082200e+03 -4.43224658e+03 -4.44367116e+03 
        </DataArray>
      </PointData>
    </Piece>
    <Piece NumberOfPoints="16" NumberOfCells="9">
      <Points>
        <DataArray type="Float64" NumberOfComponents="3" format="ascii">
          3.00000000e+00 2.00000000e+00 0.00000000e+00 
4.00000000e+00 2.00000000e+00 0.00000000e+00 
5.00000000e+00 2.00000000e+00 0.00000000e+00 
6.00000000e+00 2.00000000e+00 0.00000000e+00 
3.00000000e+00 2.33333325e+00 0.00000000e+00 
4.00000000e+00 2.33333325e+00 0.00000000e+00 
5.00000000e+00 2.33333325e+00 0.00000000e+00 
6.00000000e+00 2.33333325e+00 0.00000000e+00 
3.00000000e+00 2.66666675e+00 0.00000000e+00 
4.00000000e+00 2.66666675e+00 0.00000000e+00 
5.00000000e+00 2.66666675e+00 0.00000000e+00 
6.00000000e+00 2.66666675e+00 0.00000000e+00 
3.00000000e+00 3.00000000e+00 0.00000000e+00 
4.00000000e+00 3.00000000e+00 0.00000000e+00 
5.00000000e+00 3.00000000e+00 0.00000000e+00 
6.00000000e+00 3.00000000e+00 0.00000000e+00 

        </DataArray>
      </Points>
      <Cells>
        <DataArray type="Int32" Name="connectivity" format="ascii">
0 1 5 4
4 5 9 8
8 9 13 12
1 2 6 5
5 6 10 9
9 10 14 13
2 3 7 6
6 7 11 10
10 11 15 14

        </DataArray>
        <DataArray type="Int32" Name="offsets" format="ascii">
4 8 12 16 20 24 28 32 36 
        </DataArray>
        <DataArray type="UInt8" Name="types" format="ascii">
9 9 9 9 9 9 9 9 9 
        </DataArray>
      </Cells>
      <PointData>
        <DataArray type="Float64" Name="u">
          0.00000000e+00 -5.04429190e+00 -4.10388133e+00 6.02324451e-02 0.00000000e+00 -4.51445113e-01 6.41312089e+00 2.20291395e+01 0.00000000e+00 1.35749082e+01 2.77065150e+01 5.32924711e+01 0.00000000e+00 5.55175221e+01 7.17373128e+01 9.88839709e+01 
        </DataArray>
        <DataArray type="Float64" Name="v">
          0.00000000e+00 1.30132595e+01 9.80529012e+00 3.07554510e+00 0.00000000e+00 1.40424288e+01 6.48527816e+00 -2.71568075e+00 0.00000000e+00 1.06203840e+01 2.83036965e+00 -7.24044076e+00 0.00000000e+00 -1.10542712e+00 -6.89269225e+00 -1.27774596e+01 
        </DataArray>
        <DataArray type="Float64" Name="p">
          -4.38407950e+03 -4.42960306e+03 -4.47512662e+03 -4.52065019e+03 -4.51962298e+03 -4.48058821e+03 -4.44155344e+03 -4.40251866e+03 -4.65516646e+03 -4.53157335e+03 -4.40798025e+03 -4.28438714e+03 -4.79070995e+03 -4.58255850e+03 -4.37440706e+03 -4.16625561e+03 
        </DataArray>
      </PointData>
    </Piece>
    <Piece NumberOfPoints="16" NumberOfCells="9">
      <Points>
        <DataArray type="Float64" NumberOfComponents="3" format="ascii">
          3.00000000e+00 3.00000000e+00 0.00000000e+00 
4.00000000e+00 3.00000000e+00 0.00000000e+00 
5.00000000e+00 3.00000000e+00 0.00000000e+00 
6.00000000e+00 3.00000000e+00 0.00000000e+00 
3.00000000e+00 3.33333325e+00 0.00000000e+00 
4.00000000e+00 3.33333325e+00 0.00000000e+00 
5.00000000e+00 3.33333325e+00 0.00000000e+00 
6.00000000e+00 3.33333325e+00 0.00000000e+00 
3.00000000e+00 3.66666675e+00 0.00000000e+00 
4.00000000e+00 3.66666675e+00 0.00000000e+00 
5.00000000e+00 3.66666675e+00 0.00000000e+00 
6.00000000e+00 3.66666675e+00 0.00000000e+00 
3.00000000e+00 4.00000000e+00 0.00000000e+00 
4.00000000e+00 4.00000000e+00 0.00000000e+00 
5.00000000e+00 4.00000000e+00 0.00000000e+00 
6.00000000e+00 4.00000000e+00 0.00000000e+00 

        </DataArray>
      </Points>
      <Cells>
        <DataArray type="Int32" Name="connectivity" format="ascii">
0 1 5 4
4 5 9 8
8 9 13 12
1 2 6 5
5 6 10 9
9 10 14 13
2 3 7 6
6 7 11 10
10 11 15 14

        </DataArray>
        <DataArray type="Int32" Name="offsets" format="ascii">
4 8 12 16 20 24 28 32 36 
        </DataArray>
        <DataArray type="UInt8" Name="types" format="ascii">
9 9 9 9 9 9 9 9 9 
        </DataArray>
      </Cells>
      <PointData>
        <DataArray type="Float64" Name="u">
          0.00000000e+00 5.55175221e+01 7.17373128e+01 9.88839709e+01 1.04620401e+02 1.14614006e+02 1.29684559e+02 1.45222763e+02 1.66544125e+02 1.69516402e+02 1.77574725e+02 1.84660906e+02 2.07267139e+02 2.04749039e+02 2.08968759e+02 2.08012388e+02 
        </DataArray>
        <DataArray type="Float64" Name="v">
          0.00000000e+00 -1.10542712e+00 -6.89269225e+00 -1.27774596e+01 -4.38582690e+00 -1.26114234e+01 -1.58636349e+01 -1.70438013e+01 -4.37294672e+00 -1.20256590e+01 -1.64921276e+01 -1.86658263e+01 -7.10860706e+00 -1.40274976e+01 -1.87893961e+01 -2.31414127e+01 
        </DataArray>
        <DataArray type="Float64" Name="p">
          -4.93709691e+03 -4.66663038e+03 -4.39616384e+03 -4.12569731e+03 -4.48333647e+03 -4.36158042e+03 -4.23982436e+03 -4.11806831e+03 -4.02957604e+03 -4.05653046e+03 -4.08348489e+03 -4.11043931e+03 -3.57581560e+03 -3.75148051e+03 -3.92714541e+03 -4.10281032e+03 
        </DataArray>
      </PointData>
    </Piece>
    <Piece NumberOfPoints="16" NumberOfCells="9">
      <Points>
        <DataArray type="Float64" NumberOfComponents="3" format="ascii">
          3.00000000e+00 4.00000000e+00 0.00000000e+00 
4.00000000e+00 4.00000000e+00 0.00000000e+00 
5.00000000e+00 4.00000000e+00 0.00000000e+00 
6.00000000e+00 4.00000000e+00 0.00000000e+00 
3.00000000e+00 4.33333349e+00 0.00000000e+00 
4.00000000e+00 4.33333349e+00 0.00000000e+00 
5.00000000e+00 4.33333349e+00 0.00000000e+00 
6.00000000e+00 4.33333349e+00 0.00000000e+00 
3.00000000e+00 4.66666651e+00 0.00000000e+00 
4.00000000e+00 4.66666651e+00 0.00000000e+00 
5.00000000e+00 4.66666651e+00 0.00000000e+00 
6.00000000e+00 4.66666651e+00 0.00000000e+00 
3.00000000e+00 5.00000000e+00 0.00000000e+00 
4.00000000e+00 5.00000000e+00 0.00000000e+00 
5.00000000e+00 5.00000000e+00 0.00000000e+00 
6.00000000e+00 5.00000000e+00 0.00000000e+00 

        </DataArray>
      </Points>
      <Cells>
        <DataArray type="Int32" Name="connectivity" format="ascii">
0 1 5 4
4 5 9 8
8 9 13 12
1 2 6 5
5 6 10 9
9 10 14 13
2 3 7 6
6 7 11 10
10 11 15 14

        </DataArray>
        <DataArray type="Int32" Name="offsets" format="ascii">
4 8 12 16 20 24 28 32 36 
        </DataArray>
        <DataArray type="UInt8" Name="types" format="ascii">
9 9 9 9 9 9 9 9 9 
        </DataArray>
      </Cells>
      <PointData>
        <DataArray type="Float64" Name="u">
          2.07267139e+02 2.04749039e+02 2.08968759e+02 2.08012388e+02 2.24255976e+02 2.19734759e+02 2.18208889e+02 2.11753375e+02 2.19199860e+02 2.11694493e+02 2.06238430e+02 1.94382522e+02 1.92196279e+02 1.83310103e+02 1.75023549e+02 1.60074813e+02 
        </DataArray>
        <DataArray type="Float64" Name="v">
          -7.10860706e+00 -1.40274976e+01 -1.87893961e+01 -2.31414127e+01 -7.27260990e+00 -1.20490811e+01 -1.73884676e+01 -2.25310667e+01 -7.33401671e+00 -1.19157794e+01 -1.60835053e+01 -2.07384331e+01 -6.28005780e+00 -7.74298987e+00 -1.16753307e+01 -1.63870020e+01 
        </DataArray>
        <DataArray type="Float64" Name="p">
          -3.46913531e+03 -3.65597239e+03 -3.84280947e+03 -4.02964656e+03 -3.12966738e+03 -3.29501360e+03 -3.46035981e+03 -3.62570602e+03 -2.79019946e+03 -2.93405480e+03 -3.07791014e+03 -3.22176548e+03 -2.45073154e+03 -2.57309601e+03 -2.69546048e+03 -2.81782495e+03 
        </DataArray>
      </PointData>
    </Piece>
    <Piece NumberOfPoints="16" NumberOfCells="9">
      <Points>
        <DataArray type="Float64" NumberOfComponents="3" format="ascii">
          3.00000000e+00 5.00000000e+00 0.00000000e+00 
4.00000000e+00 5.00000000e+00 0.00000000e+00 
5.00000000e+00 5.00000000e+00 0.00000000e+00 
6.00000000e+00 5.00000000e+00 0.00000000e+00 
3.00000000e+00 5.33333349e+00 0.00000000e+00 
4.00000000e+00 5.33333349e+00 0.00000000e+00 
5.00000000e+00 5.33333349e+00 0.00000000e+00 
6.00000000e+00 5.33333349e+00 0.00000000e+00 
3.00000000e+00 5.66666651e+00 0.00000000e+00 
4.00000000e+00 5.66666651e+00 0.00000000e+00 
5.00000000e+00 5.66666651e+00 0.00000000e+00 
6.00000000e+00 5.66666651e+00 0.00000000e+00 
3.00000000e+00 6.00000000e+00 0.00000000e+00 
4.00000000e+00 6.00000000e+00 0.00000000e+00 
5.00000000e+00 6.00000000e+00 0.00000000e+00 
6.00000000e+00 6.00000000e+00 0.00000000e+00 

        </DataArray>
      </Points>
      <Cells>
        <DataArray type="Int32" Name="connectivity" format="ascii">
0 1 5 4
4 5 9 8
8 9 13 12
1 2 6 5
5 6 10 9
9 10 14 13
2 3 7 6
6 7 11 10
10 11 15 14

        </DataArray>
        <DataArray type="Int32" Name="offsets" format="ascii">
4 8 12 16 20 24 28 32 36 
        </DataArray>
        <DataArray type="UInt8" Name="types" format="ascii">
9 9 9 9 9 9 9 9 9 
        </DataArray>
      </Cells>
      <PointData>
        <DataArray type="Float64" Name="u">
          1.92196279e+02 1.83310103e+02 1.75023549e+02 1.60074813e+02 1.44375383e+02 1.34608696e+02 1.25899187e+02 1.11948136e+02 7.46953086e+01 7.46057641e+01 6.99531683e+01 6.40556905e+01 0.00000000e+00 2.96165216e+01 2.80034769e+01 3.39534645e+01 
        </DataArray>
        <DataArray type="Float64" Name="v">
          -6.28005780e+00 -7.74298987e+00 -1.16753307e+01 -1.63870020e+01 -3.95217277e+00 -3.17916637e+00 -5.57260109e+00 -1.03279219e+01 -2.67632722e+00 -3.10592588e+00 -6.38572896e+00 -8.73551904e+00 0.00000000e+00 -6.65793984e+00 -5.03258478e+00 -3.39424855e+00 
        </DataArray>
        <DataArray type="Float64" Name="p">
          -2.49345760e+03 -2.55289680e+03 -2.61233600e+03 -2.67177521e+03 -2.57138473e+03 -2.54713708e+03 -2.52288943e+03 -2.49864178e+03 -2.64931185e+03 -2.54137736e+03 -2.43344286e+03 -2.32550836e+03 -2.72723898e+03 -2.53561764e+03 -2.34399629e+03 -2.15237494e+03 
        </DataArray>
      </PointData>
    </Piece>
    <Piece NumberOfPoints="16" NumberOfCells="9">
      <Points>
        <DataArray type="Float64" NumberOfComponents="3" format="ascii">
          3.00000000e+00 6.00000000e+00 0.00000000e+00 
4.00000000e+00 6.00000000e+00 0.00000000e+00 
5.00000000e+00 6.00000000e+00 0.00000000e+00 
6.00000000e+00 6.00000000e+00 0.00000000e+00 
3.00000000e+00 6.33333349e+00 0.00000000e+00 
4.00000000e+00 6.33333349e+00 0.00000000e+00 
5.00000000e+00 6.33333349e+00 0.00000000e+00 
6.00000000e+00 6.33333349e+00 0.00000000e+00 
3.00000000e+00 6.66666651e+00 0.00000000e+00 
4.00000000e+00 6.66666651e+00 0.00000000e+00 
5.00000000e+00 6.66666651e+00 0.00000000e+00 
6.00000000e+00 6.66666651e+00 0.00000000e+00 
3.00000000e+00 7.00000000e+00 0.00000000e+00 
4.00000000e+00 7.00000000e+00 0.00000000e+00 
5.00000000e+00 7.00000000e+00 0.00000000e+00 
6.00000000e+00 7.00000000e+00 0.00000000e+00 

        </DataArray>
      </Points>
      <Cells>
        <DataArray type="Int32" Name="connectivity" format="ascii">
0 1 5 4
4 5 9 8
8 9 13 12
1 2 6 5
5 6 10 9
9 10 14 13
2 3 7 6
6 7 11 10
10 11 15 14

        </DataArray>
        <DataArray type="Int32" Name="offsets" format="ascii">
4 8 12 16 20 24 28 32 36 
        </DataArray>
        <DataArray type="UInt8" Name="types" format="ascii">
9 9 9 9 9 9 9 9 9 
        </DataArray>
      </Cells>
      <PointData>
        <DataArray type="Float64" Name="u">
          0.00000000e+00 2.96165216e+01 2.80034769e+01 3.39534645e+01 0.00000000e+00 4.83857632e+00 6.78337261e+00 1.14949162e+01 0.00000000e+00 -3.09023407e+00 -3.02541959e+00 -2.23481185e+00 0.00000000e+00 -5.54203443e+00 -7.61761873e+00 -1.02884138e+01 
        </DataArray>
        <DataArray type="Float64" Name="v">
          0.00000000e+00 -6.65793984e+00 -5.03258478e+00 -3.39424855e+00 0.00000000e+00 -1.15079719e+01 -7.18493235e+00 -2.99325582e+00 0.00000000e+00 -1.20164229e+01 -6.99474855e+00 -3.37797395e+00 0.00000000e+00 -1.01979171e+01 -7.03031302e+00 -3.92958669e+00 
        </DataArray>
        <DataArray type="Float64" Name="p">
          -2.71104364e+03 -2.57790825e+03 -2.44477286e+03 -2.31163747e+03 -2.62027736e+03 -2.52928028e+03 -2.43828321e+03 -2.34728614e+03 -2.52951107e+03 -2.48065232e+03 -2.43179357e+03 -2.38293482e+03 -2.43874479e+03 -2.43202436e+03 -2.42530393e+03 -2.41858349e+03 
        </DataArray>
      </PointData>
    </Piece>
    <Piece NumberOfPoints="16" NumberOfCells="9">
      <Points>
        <DataArray type="Float64" NumberOfComponents="3" format="ascii">
          3.00000000e+00 7.00000000e+00 0.00000000e+00 
4.00000000e+00 7.00000000e+00 0.00000000e+00 
5.00000000e+00 7.00000000e+00 0.00000000e+00 
6.00000000e+00 7.00000000e+00 0.00000000e+00 
3.00000000e+00 7.33333349e+00 0.00000000e+00 
4.00000000e+00 7.33333349e+00 0.00000000e+00 
5.00000000e+00 7.33333349e+00 0.00000000e+00 
6.00000000e+00 7.33333349e+00 0.00000000e+00 
3.00000000e+00 7.66666651e+00 0.00000000e+00 
4.00000000e+00 7.66666651e+00 0.00000000e+00 
5.00000000e+00 7.66666651e+00 0.00000000e+00 
6.00000000e+00 7.66666651e+00 0.00000000e+00 
3.00000000e+00 8.00000000e+00 0.00000000e+00 
4.00000000e+00 8.00000000e+00 0.00000000e+00 
5.00000000e+00 8.00000000e+00 0.00000000e+00 
6.00000000e+00 8.00000000e+00 0.00000000e+00 

        </DataArray>
      </Points>
      <Cells>
        <DataArray type="Int32" Name="connectivity" format="ascii">
0 1 5 4
4 5 9 8
8 9 13 12
1 2 6 5
5 6 10 9
9 10 14 13
2 3 7 6
6 7 11 10
10 11 15 14

        </DataArray>
        <DataArray type="Int32" Name="offsets" format="ascii">
4 8 12 16 20 24 28 32 36 
        </DataArray>
        <DataArray type="UInt8" Name="types" format="ascii">
9 9 9 9 9 9 9 9 9 
        </DataArray>
      </Cells>
      <PointData>
        <DataArray type="Float64" Name="u">
          0.00000000e+00 -5.54203443e+00 -7.61761873e+00 -1.02884138e+01 0.00000000e+00 -6.10769921e+00 -9.63246405e+00 -1.37521201e+01 0.00000000e+00 -5.72684966e+00 -9.71473885e+00 -1.43934218e+01 0.00000000e+00 -4.80389206e+00 -8.44801406e+00 -1.29283051e+01 
        </DataArray>
        <DataArray type="Float64" Name="v">
          0.00000000e+00 -1.01979171e+01 -7.03031302e+00 -3.92958669e+00 0.00000000e+00 -7.72908222e+00 -5.70742883e+00 -3.48800243e+00 0.00000000e+00 -5.67197664e+00 -4.37441388e+00 -2.78084904e+00 0.00000000e+00 -3.28320191e+00 -2.69964091e+00 -1.78130034e+00 
        </DataArray>
        <DataArray type="Float64" Name="p">
          -2.44540395e+03 -2.42577238e+03 -2.40614080e+03 -2.38650923e+03 -2.42086515e+03 -2.40477713e+03 -2.38868911e+03 -2.37260109e+03 -2.39632635e+03 -2.38378188e+03 -2.37123742e+03 -2.35869295e+03 -2.37178755e+03 -2.36278664e+03 -2.35378572e+03 -2.34478481e+03 
        </DataArray>
      </PointData>
    </Piece>
    <Piece NumberOfPoints="16" NumberOfCells="9">
      <Points>
        <DataArray type="Float64" NumberOfComponents="3" format="ascii">
          3.00000000e+00 8.00000000e+00 0.00000000e+00 
4.00000000e+00 8.00000000e+00 0.00000000e+00 
5.00000000e+00 8.00000000e+00 0.00000000e+00 
6.00000000e+00 8.00000000e+00 0.00000000e+00 
3.00000000e+00 8.33333302e+00 0.00000000e+00 
4.00000000e+00 8.33333302e+00 0.00000000e+00 
5.00000000e+00 8.33333302e+00 0.00000000e+00 
6.00000000e+00 8.33333302e+00 0.00000000e+00 
3.00000000e+00 8.66666698e+00 0.00000000e+00 
4.00000000e+00 8.66666698e+00 0.00000000e+00 
5.00000000e+00 8.66666698e+00 0.00000000e+00 
6.00000000e+00 8.66666698e+00 0.00000000e+00 
3.00000000e+00 9.00000000e+00 0.00000000e+00 
4.00000000e+00 9.00000000e+00 0.00000000e+00 
5.00000000e+00 9.00000000e+00 0.00000000e+00 
6.00000000e+00 9.00000000e+00 0.00000000e+00 

        </DataArray>
      </Points>
      <Cells>
        <DataArray type="Int32" Name="connectivity" format="ascii">
0 1 5 4
4 5 9 8
8 9 13 12
1 2 6 5
5 6 10 9
9 10 14 13
2 3 7 6
6 7 11 10
10 11 15 14

        </DataArray>
        <DataArray type="Int32" Name="offsets" format="ascii">
4 8 12 16 20 24 28 32 36 
        </DataArray>
        <DataArray type="UInt8" Name="types" format="ascii">
9 9 9 9 9 9 9 9 9 
        </DataArray>
      </Cells>
      <PointData>
        <DataArray type="Float64" Name="u">
          0.00000000e+00 -4.80389206e+00 -8.44801406e+00 -1.29283051e+01 0.00000000e+00 -3.51980788e+00 -6.22084894e+00 -9.90089763e+00 0.00000000e+00 -1.91572072e+00 -3.31497972e+00 -5.51949613e+00 0.00000000e+00 0.00000000e+00 0.00000000e+00 0.00000000e+00 
        </DataArray>
        <DataArray type="Float64" Name="v">
          0.00000000e+00 -3.28320191e+00 -2.69964091e+00 -1.78130034e+00 0.00000000e+00 -1.46300207e+00 -1.27559157e+00 -8.17572393e-01 0.00000000e+00 -4.64670772e-01 -4.37634615e-01 -2.70768279e-01 0.00000000e+00 0.00000000e+00 0.00000000e+00 0.00000000e+00 
        </DataArray>
        <DataArray type="Float64" Name="p">
          -2.37679983e+03 -2.36608851e+03 -2.35537719e+03 -2.34466586e+03 -2.38169228e+03 -2.37061921e+03 -2.35954615e+03 -2.34847308e+03 -2.38658473e+03 -2.37514992e+03 -2.36371511e+03 -2.35228030e+03 -2.39147718e+03 -2.37968062e+03 -2.36788407e+03 -2.35608751e+03 
        </DataArray>
      </PointData>
    </Piece>
    <Piece NumberOfPoints="16" NumberOfCells="9">
      <Points>
        <DataArray type="Float64" NumberOfComponents="3" format="ascii">
          6.00000000e+00 0.00000000e+00 0.00000000e+00 
7.00000000e+00 0.00000000e+00 0.00000000e+00 
8.00000000e+00 0.00000000e+00 0.00000000e+00 
9.00000000e+00 0.00000000e+00 0.00000000e+00 
6.00000000e+00 3.33333343e-01 0.00000000e+00 
7.00000000e+00 3.33333343e-01 0.00000000e+00 
8.00000000e+00 3.33333343e-01 0.00000000e+00 
9.00000000e+00 3.33333343e-01 0.00000000e+00 
6.00000000e+00 6.66666687e-01 0.00000000e+00 
7.00000000e+00 6.66666687e-01 0.00000000e+00 
8.00000000e+00 6.66666687e-01 0.00000000e+00 
9.00000000e+00 6.66666687e-01 0.00000000e+00 
6.00000000e+00 1.00000000e+00 0.00000000e+00 
7.00000000e+00 1.00000000e+00 0.00000000e+00 
8.00000000e+00 1.00000000e+00 0.00000000e+00 
9.00000000e+00 1.00000000e+00 0.00000000e+00 

        </DataArray>
      </Points>
      <Cells>
        <DataArray type="Int32" Name="connectivity" format="ascii">
0 1 5 4
4 5 9 8
8 9 13 12
1 2 6 5
5 6 10 9
9 10 14 13
2 3 7 6
6 7 11 10
10 11 15 14

        </DataArray>
        <DataArray type="Int32" Name="offsets" format="ascii">
4 8 12 16 20 24 28 32 36 
        </DataArray>
        <DataArray type="UInt8" Name="types" format="ascii">
9 9 9 9 9 9 9 9 9 
        </DataArray>
      </Cells>
      <PointData>
        <DataArray type="Float64" Name="u">