<?xml version="1.0"?>
<VTKFile type="UnstructuredGrid" version="0.1" byte_order="LittleEndian">
  <UnstructuredGrid>
    <Piece NumberOfPoints="16" NumberOfCells="9">
      <Points>
        <DataArray type="Float64" NumberOfComponents="3" format="ascii">
          0.00000000e+00 3.00000000e+00 0.00000000e+00 
1.00000000e+00 3.00000000e+00 0.00000000e+00 
2.00000000e+00 3.00000000e+00 0.00000000e+00 
3.00000000e+00 3.00000000e+00 0.00000000e+00 
0.00000000e+00 3.33333325e+00 0.00000000e+00 
1.00000000e+00 3.33333325e+00 0.00000000e+00 
2.00000000e+00 3.33333325e+00 0.00000000e+00 
3.00000000e+00 3.33333325e+00 0.00000000e+00 
0.00000000e+00 3.66666675e+00 0.00000000e+00 
1.00000000e+00 3.66666675e+00 0.00000000e+00 
2.00000000e+00 3.66666675e+00 0.00000000e+00 
3.00000000e+00 3.66666675e+00 0.00000000e+00 
0.00000000e+00 4.00000000e+00 0.00000000e+00 
1.00000000e+00 4.00000000e+00 0.00000000e+00 
2.00000000e+00 4.00000000e+00 0.00000000e+00 
3.00000000e+00 4.00000000e+00 0.00000000e+00 

        </DataArray>
      </Points>
      <Cells>
        <DataArray type="Int32" Name="connectivity" format="ascii">
0 1 5 4
4 5 9 8
8 9 13 12
1 2 6 5
5 6 10 9
9 10 14 13
2 3 7 6
6 7 11 10
10 11 15 14

        </DataArray>
        <DataArray type="Int32" Name="offsets" format="ascii">
4 8 12 16 20 24 28 32 36 
        </DataArray>
        <DataArray type="UInt8" Name="types" format="ascii">
9 9 9 9 9 9 9 9 9 
        </DataArray>
      </Cells>
      <PointData>
        <DataArray type="Float64" Name="u">
          0.00000000e+00 0.00000000e+00 0.00000000e+00 0.00000000e+00 8.88888889e+01 9.25358387e+01 9.11144465e+01 1.00912696e+02 1.55555556e+02 1.58818223e+02 1.58369172e+02 1.64873645e+02 2.00000000e+02 2.01809847e+02 2.02152914e+02 2.05773361e+02 
        </DataArray>
        <DataArray type="Float64" Name="v">
          0.00000000e+00 0.00000000e+00 0.00000000e+00 0.00000000e+00 0.00000000e+00 -9.44783077e-01 -1.39784303e+00 -3.98589037e+00 0.00000000e+00 -8.27572885e-01 -2.05073691e+00 -3.90053778e+00 0.00000000e+00 -2.02464342e+00 -3.66484559e+00 -6.19788270e+00 
        </DataArray>
        <DataArray type="Float64" Name="p">
          2.07306571e+03 7.83588678e+02 -5.05888349e+02 -1.79536538e+03 2.08551246e+03 8.18053330e+02 -4.49405803e+02 -1.71686493e+03 2.09795922e+03 8.52517981e+02 -3.92923256e+02 -1.63836449e+03 2.11040598e+03 8.86982633e+02 -3.36440710e+02 -1.55986405e+03 
        </DataArray>
      </PointData>
    </Piece>
    <Piece NumberOfPoints="16" NumberOfCells="9">
      <Points>
        <DataArray type="Float64" NumberOfComponents="3" format="ascii">
          0.00000000e+00 4.00000000e+00 0.00000000e+00 
1.00000000e+00 4.00000000e+00 0.00000000e+00 
2.00000000e+00 4.00000000e+00 0.00000000e+00 
3.00000000e+00 4.00000000e+00 0.00000000e+00 
0.00000000e+00 4.33333349e+00 0.00000000e+00 
1.00000000e+00 4.33333349e+00 0.00000000e+00 
2.00000000e+00 4.33333349e+00 0.00000000e+00 
3.00000000e+00 4.33333349e+00 0.00000000e+00 
0.00000000e+00 4.66666651e+00 0.00000000e+00 
1.00000000e+00 4.66666651e+00 0.00000000e+00 
2.00000000e+00 4.66666651e+00 0.00000000e+00 
3.00000000e+00 4.66666651e+00 0.00000000e+00 
0.00000000e+00 5.00000000e+00 0.00000000e+00 
1.00000000e+00 5.00000000e+00 0.00000000e+00 
2.00000000e+00 5.00000000e+00 0.00000000e+00 
3.00000000e+00 5.00000000e+00 0.00000000e+00 

        </DataArray>
      </Points>
      <Cells>
        <DataArray type="Int32" Name="connectivity" format="ascii">
0 1 5 4
4 5 9 8
8 9 13 12
1 2 6 5
5 6 10 9
9 10 14 13
2 3 7 6
6 7 11 10
10 11 15 14

        </DataArray>
        <DataArray type="Int32" Name="offsets" format="ascii">
4 8 12 16 20 24 28 32 36 
        </DataArray>
        <DataArray type="UInt8" Name="types" format="ascii">
9 9 9 9 9 9 9 9 9 
        </DataArray>
      </Cells>
      <PointData>
        <DataArray type="Float64" Name="u">
          2.00000000e+02 2.01809847e+02 2.02152914e+02 2.05773361e+02 2.22222222e+02 2.22613080e+02 2.22888033e+02 2.23752347e+02 2.22222222e+02 2.21077103e+02 2.21264404e+02 2.19319328e+02 2.00000000e+02 1.97545318e+02 1.97899816e+02 1.93130030e+02 
        </DataArray>
        <DataArray type="Float64" Name="v">
          0.00000000e+00 -2.02464342e+00 -3.66484559e+00 -6.19788270e+00 0.00000000e+00 -2.31179110e+00 -4.38975698e+00 -6.15713428e+00 0.00000000e+00 -2.34032906e+00 -4.27736907e+00 -6.34672584e+00 0.00000000e+00 -1.80091997e+00 -3.64268760e+00 -5.19722132e+00 
        </DataArray>
        <DataArray type="Float64" Name="p">
          2.13716709e+03 9.17019298e+02 -3.03128492e+02 -1.52327628e+03 2.30935717e+03 1.08019401e+03 -1.48969157e+02 -1.37813232e+03 2.48154726e+03 1.24336872e+03 5.19017878e+00 -1.23298836e+03 2.65373734e+03 1.40654343e+03 1.59349514e+02 -1.08784440e+03 
        </DataArray>
      </PointData>
    </Piece>
    <Piece NumberOfPoints="16" NumberOfCells="9">
      <Points>
        <DataArray type="Float64" NumberOfComponents="3" format="ascii">
          0.00000000e+00 5.00000000e+00 0.00000000e+00 
1.00000000e+00 5.00000000e+00 0.00000000e+00 
2.00000000e+00 5.00000000e+00 0.00000000e+00 
3.00000000e+00 5.00000000e+00 0.00000000e+00 
0.00000000e+00 5.33333349e+00 0.00000000e+00 
1.00000000e+00 5.33333349e+00 0.00000000e+00 
2.00000000e+00 5.33333349e+00 0.00000000e+00 
3.00000000e+00 5.33333349e+00 0.00000000e+00 
0.00000000e+00 5.66666651e+00 0.00000000e+00 
1.00000000e+00 5.66666651e+00 0.00000000e+00 
2.00000000e+00 5.66666651e+00 0.00000000e+00 
3.00000000e+00 5.66666651e+00 0.00000000e+00 
0.00000000e+00 6.00000000e+00 0.00000000e+00 
1.00000000e+00 6.00000000e+00 0.00000000e+00 
2.00000000e+00 6.00000000e+00 0.00000000e+00 
3.00000000e+00 6.00000000e+00 0.00000000e+00 

        </DataArray>
      </Points>
      <Cells>
        <DataArray type="Int32" Name="connectivity" format="ascii">
0 1 5 4
4 5 9 8
8 9 13 12
1 2 6 5
5 6 10 9
9 10 14 13
2 3 7 6
6 7 11 10
10 11 15 14

        </DataArray>
        <DataArray type="Int32" Name="offsets" format="ascii">
4 8 12 16 20 24 28 32 36 
        </DataArray>
        <DataArray type="UInt8" Name="types" format="ascii">
9 9 9 9 9 9 9 9 9 
        </DataArray>
      </Cells>
      <PointData>
        <DataArray type="Float64" Name="u">
          2.00000000e+02 1.97545318e+02 1.97899816e+02 1.93130030e+02 1.55555556e+02 1.52408127e+02 1.53059091e+02 1.46263793e+02 8.88888889e+01 8.60955291e+01 8.68183566e+01 7.89425980e+01 0.00000000e+00 0.00000000e+00 0.00000000e+00 0.00000000e+00 
        </DataArray>
        <DataArray type="Float64" Name="v">
          0.00000000e+00 -1.80091997e+00 -3.64268760e+00 -5.19722132e+00 0.00000000e+00 -7.23449916e-01 -1.93131192e+00 -3.21239457e+00 0.00000000e+00 -6.94812370e-01 -1.65589951e+00 -1.58374919e+00 0.00000000e+00 0.00000000e+00 0.00000000e+00 0.00000000e+00 
        </DataArray>
        <DataArray type="Float64" Name="p">
          2.66073986e+03 1.42900524e+03 1.97270613e+02 -1.03446401e+03 2.69143049e+03 1.46590511e+03 2.40379739e+02 -9.85145637e+02 2.72212112e+03 1.50280499e+03 2.83488865e+02 -9.35827264e+02 2.75281175e+03 1.53970487e+03 3.26597991e+02 -8.86508890e+02 
        </DataArray>
      </PointData>
    </Piece>
    <Piece NumberOfPoints="16" NumberOfCells="9">
      <Points>
        <DataArray type="Float64" NumberOfComponents="3" format="ascii">
          3.00000000e+00 0.00000000e+00 0.00000000e+00 
4.00000000e+00 0.00000000e+00 0.00000000e+00 
5.00000000e+00 0.00000000e+00 0.00000000e+00 
6.00000000e+00 0.00000000e+00 0.00000000e+00 
3.00000000e+00 3.33333343e-01 0.00000000e+00 
4.00000000e+00 3.33333343e-01 0.00000000e+00 
5.00000000e+00 3.33333343e-01 0.00000000e+00 
6.00000000e+00 3.33333343e-01 0.00000000e+00 
3.00000000e+00 6.66666687e-01 0.00000000e+00 
4.00000000e+00 6.66666687e-01 0.00000000e+00 
5.00000000e+00 6.66666687e-01 0.00000000e+00 
6.00000000e+00 6.66666687e-01 0.00000000e+00 
3.00000000e+00 1.00000000e+00 0.00000000e+00 
4.00000000e+00 1.00000000e+00 0.00000000e+00 
5.00000000e+00 1.00000000e+00 0.00000000e+00 
6.00000000e+00 1.00000000e+00 0.00000000e+00 

        </DataArray>
      </Points>
      <Cells>
        <DataArray type="Int32" Name="connectivity" format="ascii">
0 1 5 4
4 5 9 8
8 9 13 12
1 2 6 5
5 6 10 9
9 10 14 13
2 3 7 6
6 7 11 10
10 11 15 14

        </DataArray>
        <DataArray type="Int32" Name="offsets" format="ascii">
4 8 12 16 20 24 28 32 36 
        </DataArray>
        <DataArray type="UInt8" Name="types" format="ascii">
9 9 9 9 9 9 9 9 9 
        </DataArray>
      </Cells>
      <PointData>
        <DataArray type="Float64" Name="u">
          0.00000000e+00 0.00000000e+00 0.00000000e+00 0.00000000e+00 0.00000000e+00 -4.20197544e+00 -6.69549727e+00 -1.22432185e+01 0.00000000e+00 -7.17137468e+00 -1.17436796e+01 -2.08046243e+01 0.00000000e+00 -8.88341851e+00 -1.43669598e+01 -2.37920224e+01 
        </DataArray>
        <DataArray type="Float64" Name="v">
          0.00000000e+00 0.00000000e+00 0.00000000e+00 0.00000000e+00 0.00000000e+00 9.95396334e-01 1.06229635e+00 8.07304562e-01 0.00000000e+00 2.91538821e+00 2.92593945e+00 1.87058980e+00 0.00000000e+00 6.25118686e+00 6.21066771e+00 3.59295318e+00 
        </DataArray>
        <DataArray type="Float64" Name="p">
          -2.22280363e+03 -2.15172037e+03 -2.08063712e+03 -2.00955387e+03 -2.20991650e+03 -2.13975442e+03 -2.06959234e+03 -1.99943025e+03 -2.19702937e+03 -2.12778846e+03 -2.05854755e+03 -1.98930664e+03 -2.18414224e+03 -2.11582250e+03 -2.04750276e+03 -1.97918302e+03 
        </DataArray>
      </PointData>
    </Piece>
    <Piece NumberOfPoints="16" NumberOfCells="9">
      <Points>
        <DataArray type="Float64" NumberOfComponents="3" format="ascii">
          3.00000000e+00 1.00000000e+00 0.00000000e+00 
4.00000000e+00 1.00000000e+00 0.00000000e+00 
5.00000000e+00 1.00000000e+00 0.00000000e+00 
6.00000000e+00 1.00000000e+00 0.00000000e+00 
3.00000000e+00 1.33333337e+00 0.00000000e+00 
4.00000000e+00 1.33333337e+00 0.00000000e+00 
5.00000000e+00 1.33333337e+00 0.00000000e+00 
6.00000000e+00 1.33333337e+00 0.00000000e+00 
3.00000000e+00 1.66666663e+00 0.00000000e+00 
4.00000000e+00 1.66666663e+00 0.00000000e+00 
5.00000000e+00 1.66666663e+00 0.00000000e+00 
6.00000000e+00 1.66666663e+00 0.00000000e+00 
3.00000000e+00 2.00000000e+00 0.00000000e+00 
4.00000000e+00 2.00000000e+00 0.00000000e+00 
5.00000000e+00 2.00000000e+00 0.00000000e+00 
6.00000000e+00 2.00000000e+00 0.00000000e+00 

        </DataArray>
      </Points>
      <Cells>
        <DataArray type="Int32" Name="connectivity" format="ascii">
0 1 5 4
4 5 9 8
8 9 13 12
1 2 6 5
5 6 10 9
9 10 14 13
2 3 7 6
6 7 11 10
10 11 15 14

        </DataArray>
        <DataArray type="Int32" Name="offsets" format="ascii">
4 8 12 16 20 24 28 32 36 
        </DataArray>
        <DataArray type="UInt8" Name="types" format="ascii">
9 9 9 9 9 9 9 9 9 
        </DataArray>
      </Cells>
      <PointData>
        <DataArray type="Float64" Name="u">
          0.00000000e+00 -8.88341851e+00 -1.43669598e+01 -2.37920224e+01 0.00000000e+00 -9.28414861e+00 -1.38967584e+01 -2.08265305e+01 0.00000000e+00 -8.24185323e+00 -1.00264001e+01 -1.16483431e+01 0.00000000e+00 -5.21954076e+00 -2.23615659e+00 4.03717777e+00 
        </DataArray>
        <DataArray type="Float64" Name="v">
          0.00000000e+00 6.25118686e+00 6.21066771e+00 3.59295318e+00 0.00000000e+00 1.00330304e+01 9.18862830e+00 4.45116842e+00 0.00000000e+00 1.28638363e+01 1.09061761e+01 4.00348148e+00 0.00000000e+00 1.53086903e+01 1.09166141e+01 1.36242555e+00 
        </DataArray>
        <DataArray type="Float64" Name="p">
          -2.17329139e+03 -2.11586822e+03 -2.05844505e+03 -2.00102188e+03 -2.21830291e+03 -2.17204282e+03 -2.12578274e+03 -2.07952265e+03 -2.26331443e+03 -2.22821743e+03 -2.19312042e+03 -2.15802341e+03 -2.30832595e+03 -2.28439203e+03 -2.26045810e+03 -2.23652418e+03 
        </DataArray>
      </PointData>
    </Piece>
    <Piece NumberOfPoints="16" NumberOfCells="9">
      <Points>
        <DataArray type="Float64" NumberOfComponents="3" format="ascii">
          3.00000000e+00 2.00000000e+00 0.00000000e+00 
4.00000000e+00 2.00000000e+00 0.00000000e+00 
5.00000000e+00 2.00000000e+00 0.00000000e+00 
6.00000000e+00 2.00000000e+00 0.00000000e+00 
3.00000000e+00 2.33333325e+00 0.00000000e+00 
4.00000000e+00 2.33333325e+00 0.00000000e+00 
5.00000000e+00 2.33333325e+00 0.00000000e+00 
6.00000000e+00 2.33333325e+00 0.00000000e+00 
3.00000000e+00 2.66666675e+00 0.00000000e+00 
4.00000000e+00 2.66666675e+00 0.00000000e+00 
5.00000000e+00 2.66666675e+00 0.00000000e+00 
6.00000000e+00 2.66666675e+00 0.00000000e+00 
3.00000000e+00 3.00000000e+00 0.00000000e+00 
4.00000000e+00 3.00000000e+00 0.00000000e+00 
5.00000000e+00 3.00000000e+00 0.00000000e+00 
6.00000000e+00 3.00000000e+00 0.00000000e+00 

        </DataArray>
      </Points>
      <Cells>
        <DataArray type="Int32" Name="connectivity" format="ascii">
0 1 5 4
4 5 9 8
8 9 13 12
1 2 6 5
5 6 10 9
9 10 14 13
2 3 7 6
6 7 11 10
10 11 15 14

        </DataArray>
        <DataArray type="Int32" Name="offsets" format="ascii">
4 8 12 16 20 24 28 32 36 
        </DataArray>
        <DataArray type="UInt8" Name="types" format="ascii">
9 9 9 9 9 9 9 9 9 
        </DataArray>
      </Cells>
      <PointData>
        <DataArray type="Float64" Name="u">
          0.00000000e+00 -5.21954076e+00 -2.23615659e+00 4.03717777e+00 0.00000000e+00 1.19153214e+00 1.00967725e+01 2.77206405e+01 0.00000000e+00 1.76229486e+01 3.26170307e+01 5.84971461e+01 0.00000000e+00 5.80369571e+01 7.25143410e+01 9.92127514e+01 
        </DataArray>
        <DataArray type="Float64" Name="v">
          0.00000000e+00 1.53086903e+01 1.09166141e+01 1.36242555e+00 0.00000000e+00 1.59148486e+01 6.94655689e+00 -4.67710844e+00 0.00000000e+00 1.12953687e+01 2.13118460e+00 -9.10312884e+00 0.00000000e+00 -1.57725826e+00 -7.49774887e+00 -1.33710696e+01 
        </DataArray>
        <DataArray type="Float64" Name="p">
          -2.26999080e+03 -2.29391725e+03 -2.31784371e+03 -2.34177016e+03 -2.49839257e+03 -2.38606136e+03 -2.27373015e+03 -2.16139895e+03 -2.72679433e+03 -2.47820547e+03 -2.22961660e+03 -1.98102773e+03 -2.95519610e+03 -2.57034957e+03 -2.18550304e+03 -1.80065651e+03 
        </DataArray>
      </PointData>
    </Piece>
    <Piece NumberOfPoints="16" NumberOfCells="9">
      <Points>
        <DataArray type="Float64" NumberOfComponents="3" format="ascii">
          3.00000000e+00 3.00000000e+00 0.00000000e+00 
4.00000000e+00 3.00000000e+00 0.00000000e+00 
5.00000000e+00 3.00000000e+00 0.00000000e+00 
6.00000000e+00 3.00000000e+00 0.00000000e+00 
3.00000000e+00 3.33333325e+00 0.00000000e+00 
4.00000000e+00 3.33333325e+00 0.00000000e+00 
5.00000000e+00 3.33333325e+00 0.00000000e+00 
6.00000000e+00 3.33333325e+00 0.00000000e+00 
3.00000000e+00 3.66666675e+00 0.00000000e+00 
4.00000000e+00 3.66666675e+00 0.00000000e+00 
5.00000000e+00 3.66666675e+00 0.00000000e+00 
6.00000000e+00 3.66666675e+00 0.00000000e+00 
3.00000000e+00 4.00000000e+00 0.00000000e+00 
4.00000000e+00 4.00000000e+00 0.00000000e+00 
5.00000000e+00 4.00000000e+00 0.00000000e+00 
6.00000000e+00 4.00000000e+00 0.00000000e+00 

        </DataArray>
      </Points>
      <Cells>
        <DataArray type="Int32" Name="connectivity" format="ascii">
0 1 5 4
4 5 9 8
8 9 13 12
1 2 6 5
5 6 10 9
9 10 14 13
2 3 7 6
6 7 11 10
10 11 15 14

        </DataArray>
        <DataArray type="Int32" Name="offsets" format="ascii">
4 8 12 16 20 24 28 32 36 
        </DataArray>
        <DataArray type="UInt8" Name="types" format="ascii">
9 9 9 9 9 9 9 9 9 
        </DataArray>
      </Cells>
      <PointData>
        <DataArray type="Float64" Name="u">
          0.00000000e+00 5.80369571e+01 7.25143410e+01 9.92127514e+01 1.00912696e+02 1.11457869e+02 1.25614711e+02 1.39531122e+02 1.64873645e+02 1.65177628e+02 1.72486535e+02 1.76908662e+02 2.05773361e+02 2.00842262e+02 2.04004763e+02 1.99759444e+02 
        </DataArray>
        <DataArray type="Float64" Name="v">
          0.00000000e+00 -1.57725826e+00 -7.49774887e+00 -1.33710696e+01 -3.98589037e+00 -1.29665905e+01 -1.54590191e+01 -1.58663984e+01 -3.90053778e+00 -1.32779321e+01 -1.72103556e+01 -1.79802118e+01 -6.19788270e+00 -1.37578253e+01 -1.79013863e+01 -2.11402949e+01 
        </DataArray>
        <DataArray type="Float64" Name="p">
          -3.10760554e+03 -2.63790105e+03 -2.16819656e+03 -1.69849207e+03 -2.53934290e+03 -2.28837881e+03 -2.03741472e+03 -1.78645064e+03 -1.97108026e+03 -1.93885657e+03 -1.90663289e+03 -1.87440920e+03 -1.40281762e+03 -1.58933434e+03 -1.77585105e+03 -1.96236777e+03 
        </DataArray>
      </PointData>
    </Piece>
    <Piece NumberOfPoints="16" NumberOfCells="9">
      <Points>
        <DataArray type="Float64" NumberOfComponents="3" format="ascii">
          3.00000000e+00 4.00000000e+00 0.00000000e+00 
4.00000000e+00 4.00000000e+00 0.00000000e+00 
5.00000000e+00 4.00000000e+00 0.00000000e+00 
6.00000000e+00 4.00000000e+00 0.00000000e+00 
3.00000000e+00 4.33333349e+00 0.00000000e+00 
4.00000000e+00 4.33333349e+00 0.00000000e+00 
5.00000000e+00 4.33333349e+00 0.00000000e+00 
6.00000000e+00 4.33333349e+00 0.00000000e+00 
3.00000000e+00 4.66666651e+00 0.00000000e+00 
4.00000000e+00 4.66666651e+00 0.00000000e+00 
5.00000000e+00 4.66666651e+00 0.00000000e+00 
6.00000000e+00 4.66666651e+00 0.00000000e+00 
3.00000000e+00 5.00000000e+00 0.00000000e+00 
4.00000000e+00 5.00000000e+00 0.00000000e+00 
5.00000000e+00 5.00000000e+00 0.00000000e+00 
6.00000000e+00 5.00000000e+00 0.00000000e+00 

        </DataArray>
      </Points>
      <Cells>
        <DataArray type="Int32" Name="connectivity" format="ascii">
0 1 5 4
4 5 9 8
8 9 13 12
1 2 6 5
5 6 10 9
9 10 14 13
2 3 7 6
6 7 11 10
10 11 15 14

        </DataArray>
        <DataArray type="Int32" Name="offsets" format="ascii">
4 8 12 16 20 24 28 32 36 
        </DataArray>
        <DataArray type="UInt8" Name="types" format="ascii">
9 9 9 9 9 9 9 9 9 
        </DataArray>
      </Cells>
      <PointData>
        <DataArray type="Float64" Name="u">
          2.05773361e+02 2.00842262e+02 2.04004763e+02 1.99759444e+02 2.23752347e+02 2.16252123e+02 2.14223498e+02 2.05186387e+02 2.19319328e+02 2.09693535e+02 2.04121487e+02 1.90990895e+02 1.93130030e+02 1.82843690e+02 1.75275518e+02 1.60497916e+02 
        </DataArray>
        <DataArray type="Float64" Name="v">
          -6.19788270e+00 -1.37578253e+01 -1.79013863e+01 -2.11402949e+01 -6.15713428e+00 -1.07561357e+01 -1.58275322e+01 -2.04872883e+01 -6.34672584e+00 -1.00013594e+01 -1.35098367e+01 -1.80650204e+01 -5.19722132e+00 -5.23002452e+00 -9.09000215e+00 -1.43821081e+01 
        </DataArray>
        <DataArray type="Float64" Name="p">
          -1.22493991e+03 -1.46011422e+03 -1.69528854e+03 -1.93046285e+03 -9.25970000e+02 -1.13031611e+03 -1.33466222e+03 -1.53900833e+03 -6.27000095e+02 -8.00517996e+02 -9.74035897e+02 -1.14755380e+03 -3.28030190e+02 -4.70719884e+02 -6.13409577e+02 -7.56099271e+02 
        </DataArray>
      </PointData>
    </Piece>
    <Piece NumberOfPoints="16" NumberOfCells="9">
      <Points>
        <DataArray type="Float64" NumberOfComponents="3" format="ascii">
          3.00000000e+00 5.00000000e+00 0.00000000e+00 
4.00000000e+00 5.00000000e+00 0.00000000e+00 
5.00000000e+00 5.00000000e+00 0.00000000e+00 
6.00000000e+00 5.00000000e+00 0.00000000e+00 
3.00000000e+00 5.33333349e+00 0.00000000e+00 
4.00000000e+00 5.33333349e+00 0.00000000e+00 
5.00000000e+00 5.33333349e+00 0.00000000e+00 
6.00000000e+00 5.33333349e+00 0.00000000e+00 
3.00000000e+00 5.66666651e+00 0.00000000e+00 
4.00000000e+00 5.66666651e+00 0.00000000e+00 
5.00000000e+00 5.66666651e+00 0.00000000e+00 
6.00000000e+00 5.66666651e+00 0.00000000e+00 
3.00000000e+00 6.00000000e+00 0.00000000e+00 
4.00000000e+00 6.00000000e+00 0.00000000e+00 
5.00000000e+00 6.00000000e+00 0.00000000e+00 
6.00000000e+00 6.00000000e+00 0.00000000e+00 

        </DataArray>
      </Points>
      <Cells>
        <DataArray type="Int32" Name="connectivity" format="ascii">
0 1 5 4
4 5 9 8
8 9 13 12
1 2 6 5
5 6 10 9
9 10 14 13
2 3 7 6
6 7 11 10
10 11 15 14

        </DataArray>
        <DataArray type="Int32" Name="offsets" format="ascii">
4 8 12 16 20 24 28 32 36 
        </DataArray>
        <DataArray type="UInt8" Name="types" format="ascii">
9 9 9 9 9 9 9 9 9 
        </DataArray>
      </Cells>
      <PointData>
        <DataArray type="Float64" Name="u">
          1.93130030e+02 1.82843690e+02 1.75275518e+02 1.60497916e+02 1.46263793e+02 1.37291560e+02 1.30343698e+02 1.18729691e+02 7.89425980e+01 8.14736479e+01 7.92108451e+01 7.61412996e+01 0.00000000e+00 3.69923835e+01 3.67687889e+01 4.51994285e+01 
        </DataArray>
        <DataArray type="Float64" Name="v">
          -5.19722132e+00 -5.23002452e+00 -9.09000215e+00 -1.43821081e+01 -3.21239457e+00 -1.02613517e+00 -3.83250015e+00 -9.61938076e+00 -1.58374919e+00 -1.08283994e+00 -4.63354025e+00 -7.63839370e+00 0.00000000e+00 -6.38969755e+00 -4.72744792e+00 -3.04167855e+00 
        </DataArray>
        <DataArray type="Float64" Name="p">
          -4.26762636e+02 -4.81896680e+02 -5.37030724e+02 -5.92164768e+02 -6.11979101e+02 -5.28146649e+02 -4.44314198e+02 -3.60481747e+02 -7.97195566e+02 -5.74396619e+02 -3.51597672e+02 -1.28798725e+02 -9.82412031e+02 -6.20646588e+02 -2.58881146e+02 1.02884297e+02 
        </DataArray>
      </PointData>
    </Piece>
    <Piece NumberOfPoints="16" NumberOfCells="9">
      <Points>
        <DataArray type="Float64" NumberOfComponents="3" format="ascii">
          3.00000000e+00 6.00000000e+00 0.00000000e+00 
4.00000000e+00 6.00000000e+00 0.00000000e+00 
5.00000000e+00 6.00000000e+00 0.00000000e+00 
6.00000000e+00 6.00000000e+00 0.00000000e+00 
3.00000000e+00 6.33333349e+00 0.00000000e+00 
4.00000000e+00 6.33333349e+00 0.00000000e+00 
5.00000000e+00 6.33333349e+00 0.00000000e+00 
6.00000000e+00 6.33333349e+00 0.00000000e+00 
3.00000000e+00 6.66666651e+00 0.00000000e+00 
4.00000000e+00 6.66666651e+00 0.00000000e+00 
5.00000000e+00 6.66666651e+00 0.00000000e+00 
6.00000000e+00 6.66666651e+00 0.00000000e+00 
3.00000000e+00 7.00000000e+00 0.00000000e+00 
4.00000000e+00 7.00000000e+00 0.00000000e+00 
5.00000000e+00 7.00000000e+00 0.00000000e+00 
6.00000000e+00 7.00000000e+00 0.00000000e+00 

        </DataArray>
      </Points>
      <Cells>
        <DataArray type="Int32" Name="connectivity" format="ascii">
0 1 5 4
4 5 9 8
8 9 13 12
1 2 6 5
5 6 10 9
9 10 14 13
2 3 7 6
6 7 11 10
10 11 15 14

        </DataArray>
        <DataArray type="Int32" Name="offsets" format="ascii">
4 8 12 16 20 24 28 32 36 
        </DataArray>
        <DataArray type="UInt8" Name="types" format="ascii">
9 9 9 9 9 9 9 9 9 
        </DataArray>
      </Cells>
      <PointData>
        <DataArray type="Float64" Name="u">
          0.00000000e+00 3.69923835e+01 3.67687889e+01 4.51994285e+01 0.00000000e+00 8.50339431e+00 1.21817983e+01 1.90063977e+01 0.00000000e+00 -2.38177832e+00 -8.34861137e-01 1.50538756e+00 0.00000000e+00 -6.31173880e+00 -7.53372547e+00 -9.85630844e+00 
        </DataArray>
        <DataArray type="Float64" Name="v">
          0.00000000e+00 -6.38969755e+00 -4.72744792e+00 -3.04167855e+00 0.00000000e+00 -1.31713261e+01 -7.76578528e+00 -2.48813847e+00 0.00000000e+00 -1.46429403e+01 -8.25481761e+00 -3.03120901e+00 0.00000000e+00 -1.28825278e+01 -8.65446602e+00 -4.07495886e+00 
        </DataArray>
        <DataArray type="Float64" Name="p">
          -9.53831987e+02 -6.69839610e+02 -3.85847232e+02 -1.01854854e+02 -7.83090243e+02 -5.82081546e+02 -3.81072850e+02 -1.80064153e+02 -6.12348498e+02 -4.94323483e+02 -3.76298467e+02 -2.58273452e+02 -4.41606754e+02 -4.06565419e+02 -3.71524085e+02 -3.36482751e+02 
        </DataArray>
      </PointData>
    </Piece>
    <Piece NumberOfPoints="16" NumberOfCells="9">
      <Points>
        <DataArray type="Float64" NumberOfComponents="3" format="ascii">
          3.00000000e+00 7.00000000e+00 0.00000000e+00 
4.00000000e+00 7.00000000e+00 0.00000000e+00 
5.00000000e+00 7.00000000e+00 0.00000000e+00 
6.00000000e+00 7.00000000e+00 0.00000000e+00 
3.00000000e+00 7.33333349e+00 0.00000000e+00 
4.00000000e+00 7.33333349e+00 0.00000000e+00 
5.00000000e+00 7.33333349e+00 0.00000000e+00 
6.00000000e+00 7.33333349e+00 0.00000000e+00 
3.00000000e+00 7.66666651e+00 0.00000000e+00 
4.00000000e+00 7.66666651e+00 0.00000000e+00 
5.00000000e+00 7.66666651e+00 0.00000000e+00 
6.00000000e+00 7.66666651e+00 0.00000000e+00 
3.00000000e+00 8.00000000e+00 0.00000000e+00 
4.00000000e+00 8.00000000e+00 0.00000000e+00 
5.00000000e+00 8.00000000e+00 0.00000000e+00 
6.00000000e+00 8.00000000e+00 0.00000000e+00 

        </DataArray>
      </Points>
      <Cells>
        <DataArray type="Int32" Name="connectivity" format="ascii">
0 1 5 4
4 5 9 8
8 9 13 12
1 2 6 5
5 6 10 9
9 10 14 13
2 3 7 6
6 7 11 10
10 11 15 14

        </DataArray>
        <DataArray type="Int32" Name="offsets" format="ascii">
4 8 12 16 20 24 28 32 36 
        </DataArray>
        <DataArray type="UInt8" Name="types" format="ascii">
9 9 9 9 9 9 9 9 9 
        </DataArray>
      </Cells>
      <PointData>
        <DataArray type="Float64" Name="u">
          0.00000000e+00 -6.31173880e+00 -7.53372547e+00 -9.85630844e+00 0.00000000e+00 -7.63970408e+00 -1.09665305e+01 -1.56524531e+01 0.00000000e+00 -7.55586910e+00 -1.18348673e+01 -1.76834590e+01 0.00000000e+00 -6.60752506e+00 -1.07803725e+01 -1.66913704e+01 
        </DataArray>
        <DataArray type="Float64" Name="v">
          0.00000000e+00 -1.28825278e+01 -8.65446602e+00 -4.07495886e+00 0.00000000e+00 -1.00786491e+01 -7.30810831e+00 -3.91766716e+00 0.00000000e+00 -7.53348103e+00 -5.70367095e+00 -3.24987523e+00 0.00000000e+00 -4.48437074e+00 -3.62857869e+00 -2.16195352e+00 
        </DataArray>
        <DataArray type="Float64" Name="p">
          -4.56033057e+02 -3.97369354e+02 -3.38705652e+02 -2.80041950e+02 -4.06927230e+02 -3.56840053e+02 -3.06752875e+02 -2.56665698e+02 -3.57821404e+02 -3.16310751e+02 -2.74800099e+02 -2.33289446e+02 -3.08715577e+02 -2.75781450e+02 -2.42847322e+02 -2.09913194e+02 
        </DataArray>
      </PointData>
    </Piece>
    <Piece NumberOfPoints="16" NumberOfCells="9">
      <Points>
        <DataArray type="Float64" NumberOfComponents="3" format="ascii">
          3.00000000e+00 8.00000000e+00 0.00000000e+00 
4.00000000e+00 8.00000000e+00 0.00000000e+00 
5.00000000e+00 8.00000000e+00 0.00000000e+00 
6.00000000e+00 8.00000000e+00 0.00000000e+00 
3.00000000e+00 8.33333302e+00 0.00000000e+00 
4.00000000e+00 8.33333302e+00 0.00000000e+00 
5.00000000e+00 8.33333302e+00 0.00000000e+00 
6.00000000e+00 8.33333302e+00 0.00000000e+00 
3.00000000e+00 8.66666698e+00 0.00000000e+00 
4.00000000e+00 8.66666698e+00 0.00000000e+00 
5.00000000e+00 8.66666698e+00 0.00000000e+00 
6.00000000e+00 8.66666698e+00 0.00000000e+00 
3.00000000e+00 9.00000000e+00 0.00000000e+00 
4.00000000e+00 9.00000000e+00 0.00000000e+00 
5.00000000e+00 9.00000000e+00 0.00000000e+00 
6.00000000e+00 9.00000000e+00 0.00000000e+00 

        </DataArray>
      </Points>
      <Cells>
        <DataArray type="Int32" Name="connectivity" format="ascii">
0 1 5 4
4 5 9 8
8 9 13 12
1 2 6 5
5 6 10 9
9 10 14 13
2 3 7 6
6 7 11 10
10 11 15 14

        </DataArray>
        <DataArray type="Int32" Name="offsets" format="ascii">
4 8 12 16 20 24 28 32 36 
        </DataArray>
        <DataArray type="UInt8" Name="types" format="ascii">
9 9 9 9 9 9 9 9 9 
        </DataArray>
      </Cells>
      <PointData>
        <DataArray type="Float64" Name="u">
          0.00000000e+00 -6.60752506e+00 -1.07803725e+01 -1.66913704e+01 0.00000000e+00 -5.03186953e+00 -8.23835431e+00 -1.32784136e+01 0.00000000e+00 -2.84615562e+00 -4.52844730e+00 -7.65859807e+00 0.00000000e+00 0.00000000e+00 0.00000000e+00 0.00000000e+00 
        </DataArray>
        <DataArray type="Float64" Name="v">
          0.00000000e+00 -4.48437074e+00 -3.62857869e+00 -2.16195352e+00 0.00000000e+00 -2.03768586e+00 -1.75026154e+00 -1.00504070e+00 0.00000000e+00 -6.67112699e-01 -6.18670290e-01 -3.38567154e-01 0.00000000e+00 0.00000000e+00 0.00000000e+00 0.00000000e+00 
        </DataArray>
        <DataArray type="Float64" Name="p">
          -3.16987479e+02 -2.80322957e+02 -2.43658434e+02 -2.06993911e+02 -3.26974801e+02 -2.89338477e+02 -2.51702153e+02 -2.14065829e+02 -3.36962123e+02 -2.98353998e+02 -2.59745872e+02 -2.21137747e+02 -3.46949445e+02 -3.07369518e+02 -2.67789592e+02 -2.28209665e+02 
        </DataArray>
      </PointData>
    </Piece>
    <Piece NumberOfPoints="16" NumberOfCells="9">
      <Points>
        <DataArray type="Float64" NumberOfComponents="3" format="ascii">
          6.00000000e+00 0.00000000e+00 0.00000000e+00 
7.00000000e+00 0.00000000e+00 0.00000000e+00 
8.00000000e+00 0.00000000e+00 0.00000000e+00 
9.00000000e+00 0.00000000e+00 0.00000000e+00 
6.00000000e+00 3.33333343e-01 0.00000000e+00 
7.00000000e+00 3.33333343e-01 0.00000000e+00 
8.00000000e+00 3.33333343e-01 0.00000000e+00 
9.00000000e+00 3.33333343e-01 0.00000000e+00 
6.00000000e+00 6.66666687e-01 0.00000000e+00 
7.00000000e+00 6.66666687e-01 0.00000000e+00 
8.00000000e+00 6.66666687e-01 0.00000000e+00 
9.00000000e+00 6.66666687e-01 0.00000000e+00 
6.00000000e+00 1.00000000e+00 0.00000000e+00 
7.00000000e+00 1.00000000e+00 0.00000000e+00 
8.00000000e+00 1.00000000e+00 0.00000000e+00 
9.00000000e+00 1.00000000e+00 0.00000000e+00 

        </DataArray>
      </Points>
      <Cells>
        <DataArray type="Int32" Name="connectivity" format="ascii">
0 1 5 4
4 5 9 8
8 9 13 12
1 2 6 5
5 6 10 9
9 10 14 13
2 3 7 6
6 7 11 10
10 11 15 14

        </DataArray>
        <DataArray type="Int32" Name="offsets" format="ascii">
4 8 12 16 20 24 28 32 36 
        </DataArray>
        <DataArray type="UInt8" Name="types" format="ascii">
9 9 9 9 9 9 9 9 9 
        </DataArray>
      </Cells>
      <PointData>
        <DataArray type="Float64" Name="u">