<?xml version="1.0"?>
<VTKFile type="UnstructuredGrid" version="0.1" byte_order="LittleEndian">
  <UnstructuredGrid>
    <Piece NumberOfPoints="16" NumberOfCells="9">
      <Points>
        <DataArray type="Float64" NumberOfComponents="3" format="ascii">
          0.00000000e+00 3.00000000e+00 0.00000000e+00 
1.00000000e+00 3.00000000e+00 0.00000000e+00 
2.00000000e+00 3.00000000e+00 0.00000000e+00 
3.00000000e+00 3.00000000e+00 0.00000000e+00 
0.00000000e+00 3.33333325e+00 0.00000000e+00 
1.00000000e+00 3.33333325e+00 0.00000000e+00 
2.00000000e+00 3.33333325e+00 0.00000000e+00 
3.00000000e+00 3.33333325e+00 0.00000000e+00 
0.00000000e+00 3.66666675e+00 0.00000000e+00 
1.00000000e+00 3.66666675e+00 0.00000000e+00 
2.00000000e+00 3.66666675e+00 0.00000000e+00 
3.00000000e+00 3.66666675e+00 0.00000000e+00 
0.00000000e+00 4.00000000e+00 0.00000000e+00 
1.00000000e+00 4.00000000e+00 0.00000000e+00 
2.00000000e+00 4.00000000e+00 0.00000000e+00 
3.00000000e+00 4.00000000e+00 0.00000000e+00 

        </DataArray>
      </Points>
      <Cells>
        <DataArray type="Int32" Name="connectivity" format="ascii">
0 1 5 4
4 5 9 8
8 9 13 12
1 2 6 5
5 6 10 9
9 10 14 13
2 3 7 6
6 7 11 10
10 11 15 14

        </DataArray>
        <DataArray type="Int32" Name="offsets" format="ascii">
4 8 12 16 20 24 28 32 36 
        </DataArray>
        <DataArray type="UInt8" Name="types" format="ascii">
9 9 9 9 9 9 9 9 9 
        </DataArray>
      </Cells>
      <PointData>
        <DataArray type="Float64" Name="u">
          0.00000000e+00 0.00000000e+00 0.00000000e+00 0.00000000e+00 8.88888889e+01 9.39168611e+01 9.17865791e+01 1.03979278e+02 1.55555556e+02 1.59650706e+02 1.58782213e+02 1.66369664e+02 2.00000000e+02 2.02366011e+02 2.02276443e+02 2.07112670e+02 
        </DataArray>
        <DataArray type="Float64" Name="v">
          0.00000000e+00 0.00000000e+00 0.00000000e+00 0.00000000e+00 0.00000000e+00 -1.38066888e+00 -2.04030577e+00 -4.35185394e+00 0.00000000e+00 -1.00118635e+00 -2.47631729e+00 -4.33091976e+00 0.00000000e+00 -2.58108759e+00 -4.50152427e+00 -7.02755178e+00 
        </DataArray>
        <DataArray type="Float64" Name="p">
          -8.62265638e+02 -1.71613999e+03 -2.57001434e+03 -3.42388868e+03 -8.30807145e+02 -1.66906893e+03 -2.50733072e+03 -3.34559251e+03 -7.99348652e+02 -1.62199788e+03 -2.44464710e+03 -3.26729633e+03 -7.67890159e+02 -1.57492682e+03 -2.38196349e+03 -3.18900016e+03 
        </DataArray>
      </PointData>
    </Piece>
    <Piece NumberOfPoints="16" NumberOfCells="9">
      <Points>
        <DataArray type="Float64" NumberOfComponents="3" format="ascii">
          0.00000000e+00 4.00000000e+00 0.00000000e+00 
1.00000000e+00 4.00000000e+00 0.00000000e+00 
2.00000000e+00 4.00000000e+00 0.00000000e+00 
3.00000000e+00 4.00000000e+00 0.00000000e+00 
0.00000000e+00 4.33333349e+00 0.00000000e+00 
1.00000000e+00 4.33333349e+00 0.00000000e+00 
2.00000000e+00 4.33333349e+00 0.00000000e+00 
3.00000000e+00 4.33333349e+00 0.00000000e+00 
0.00000000e+00 4.66666651e+00 0.00000000e+00 
1.00000000e+00 4.66666651e+00 0.00000000e+00 
2.00000000e+00 4.66666651e+00 0.00000000e+00 
3.00000000e+00 4.66666651e+00 0.00000000e+00 
0.00000000e+00 5.00000000e+00 0.00000000e+00 
1.00000000e+00 5.00000000e+00 0.00000000e+00 
2.00000000e+00 5.00000000e+00 0.00000000e+00 
3.00000000e+00 5.00000000e+00 0.00000000e+00 

        </DataArray>
      </Points>
      <Cells>
        <DataArray type="Int32" Name="connectivity" format="ascii">
0 1 5 4
4 5 9 8
8 9 13 12
1 2 6 5
5 6 10 9
9 10 14 13
2 3 7 6
6 7 11 10
10 11 15 14

        </DataArray>
        <DataArray type="Int32" Name="offsets" format="ascii">
4 8 12 16 20 24 28 32 36 
        </DataArray>
        <DataArray type="UInt8" Name="types" format="ascii">
9 9 9 9 9 9 9 9 9 
        </DataArray>
      </Cells>
      <PointData>
        <DataArray type="Float64" Name="u">
          2.00000000e+02 2.02366011e+02 2.02276443e+02 2.07112670e+02 2.22222222e+02 2.23031579e+02 2.22931175e+02 2.24243202e+02 2.22222222e+02 2.21270587e+02 2.21039424e+02 2.19213991e+02 2.00000000e+02 1.97517783e+02 1.97403757e+02 1.92285005e+02 
        </DataArray>
        <DataArray type="Float64" Name="v">
          0.00000000e+00 -2.58108759e+00 -4.50152427e+00 -7.02755178e+00 0.00000000e+00 -2.97326387e+00 -5.35355771e+00 -7.16063649e+00 0.00000000e+00 -2.99272075e+00 -5.28382768e+00 -7.24809188e+00 0.00000000e+00 -2.44037650e+00 -4.53039838e+00 -6.17503679e+00 
        </DataArray>
        <DataArray type="Float64" Name="p">
          -7.41782603e+02 -1.54545490e+03 -2.34912720e+03 -3.15279950e+03 -5.09266660e+02 -1.34744094e+03 -2.18561522e+03 -3.02378949e+03 -2.76750718e+02 -1.14942697e+03 -2.02210323e+03 -2.89477948e+03 -4.42347764e+01 -9.51413010e+02 -1.85859124e+03 -2.76576948e+03 
        </DataArray>
      </PointData>
    </Piece>
    <Piece NumberOfPoints="16" NumberOfCells="9">
      <Points>
        <DataArray type="Float64" NumberOfComponents="3" format="ascii">
          0.00000000e+00 5.00000000e+00 0.00000000e+00 
1.00000000e+00 5.00000000e+00 0.00000000e+00 
2.00000000e+00 5.00000000e+00 0.00000000e+00 
3.00000000e+00 5.00000000e+00 0.00000000e+00 
0.00000000e+00 5.33333349e+00 0.00000000e+00 
1.00000000e+00 5.33333349e+00 0.00000000e+00 
2.00000000e+00 5.33333349e+00 0.00000000e+00 
3.00000000e+00 5.33333349e+00 0.00000000e+00 
0.00000000e+00 5.66666651e+00 0.00000000e+00 
1.00000000e+00 5.66666651e+00 0.00000000e+00 
2.00000000e+00 5.66666651e+00 0.00000000e+00 
3.00000000e+00 5.66666651e+00 0.00000000e+00 
0.00000000e+00 6.00000000e+00 0.00000000e+00 
1.00000000e+00 6.00000000e+00 0.00000000e+00 
2.00000000e+00 6.00000000e+00 0.00000000e+00 
3.00000000e+00 6.00000000e+00 0.00000000e+00 

        </DataArray>
      </Points>
      <Cells>
        <DataArray type="Int32" Name="connectivity" format="ascii">
0 1 5 4
4 5 9 8
8 9 13 12
1 2 6 5
5 6 10 9
9 10 14 13
2 3 7 6
6 7 11 10
10 11 15 14

        </DataArray>
        <DataArray type="Int32" Name="offsets" format="ascii">
4 8 12 16 20 24 28 32 36 
        </DataArray>
        <DataArray type="UInt8" Name="types" format="ascii">
9 9 9 9 9 9 9 9 9 
        </DataArray>
      </Cells>
      <PointData>
        <DataArray type="Float64" Name="u">
          2.00000000e+02 1.97517783e+02 1.97403757e+02 1.92285005e+02 1.55555556e+02 1.51826884e+02 1.52181200e+02 1.44563094e+02 8.88888889e+01 8.48160013e+01 8.57241293e+01 7.53656539e+01 0.00000000e+00 0.00000000e+00 0.00000000e+00 0.00000000e+00 
        </DataArray>
        <DataArray type="Float64" Name="v">
          0.00000000e+00 -2.44037650e+00 -4.53039838e+00 -6.17503679e+00 0.00000000e+00 -9.81579987e-01 -2.35613815e+00 -3.89172095e+00 0.00000000e+00 -1.16572636e+00 -2.22379969e+00 -2.52400979e+00 0.00000000e+00 0.00000000e+00 0.00000000e+00 0.00000000e+00 
        </DataArray>
        <DataArray type="Float64" Name="p">
          -2.81399343e+01 -9.23006972e+02 -1.81787401e+03 -2.71274105e+03 1.51724673e+01 -8.75505266e+02 -1.76618300e+03 -2.65686073e+03 5.84848690e+01 -8.28003560e+02 -1.71449199e+03 -2.60098042e+03 1.01797271e+02 -7.80501853e+02 -1.66280098e+03 -2.54510010e+03 
        </DataArray>
      </PointData>
    </Piece>
    <Piece NumberOfPoints="16" NumberOfCells="9">
      <Points>
        <DataArray type="Float64" NumberOfComponents="3" format="ascii">
          3.00000000e+00 0.00000000e+00 0.00000000e+00 
4.00000000e+00 0.00000000e+00 0.00000000e+00 
5.00000000e+00 0.00000000e+00 0.00000000e+00 
6.00000000e+00 0.00000000e+00 0.00000000e+00 
3.00000000e+00 3.33333343e-01 0.00000000e+00 
4.00000000e+00 3.33333343e-01 0.00000000e+00 
5.00000000e+00 3.33333343e-01 0.00000000e+00 
6.00000000e+00 3.33333343e-01 0.00000000e+00 
3.00000000e+00 6.66666687e-01 0.00000000e+00 
4.00000000e+00 6.66666687e-01 0.00000000e+00 
5.00000000e+00 6.66666687e-01 0.00000000e+00 
6.00000000e+00 6.66666687e-01 0.00000000e+00 
3.00000000e+00 1.00000000e+00 0.00000000e+00 
4.00000000e+00 1.00000000e+00 0.00000000e+00 
5.00000000e+00 1.00000000e+00 0.00000000e+00 
6.00000000e+00 1.00000000e+00 0.00000000e+00 

        </DataArray>
      </Points>
      <Cells>
        <DataArray type="Int32" Name="connectivity" format="ascii">
0 1 5 4
4 5 9 8
8 9 13 12
1 2 6 5
5 6 10 9
9 10 14 13
2 3 7 6
6 7 11 10
10 11 15 14

        </DataArray>
        <DataArray type="Int32" Name="offsets" format="ascii">
4 8 12 16 20 24 28 32 36 
        </DataArray>
        <DataArray type="UInt8" Name="types" format="ascii">
9 9 9 9 9 9 9 9 9 
        </DataArray>
      </Cells>
      <PointData>
        <DataArray type="Float64" Name="u">
          0.00000000e+00 0.00000000e+00 0.00000000e+00 0.00000000e+00 0.00000000e+00 -3.05483214e+00 -5.61283639e+00 -9.54078201e+00 0.00000000e+00 -5.48516281e+00 -1.02106679e+01 -1.77392707e+01 0.00000000e+00 -7.07591220e+00 -1.30566379e+01 -2.16012273e+01 
        </DataArray>
        <DataArray type="Float64" Name="v">
          0.00000000e+00 0.00000000e+00 0.00000000e+00 0.00000000e+00 0.00000000e+00 7.89713064e-01 7.51904719e-01 6.16326819e-01 0.00000000e+00 2.36105154e+00 2.28933288e+00 1.68893742e+00 0.00000000e+00 5.15840188e+00 5.24370017e+00 3.27415564e+00 
        </DataArray>
        <DataArray type="Float64" Name="p">
          -4.04136009e+03 -4.01933875e+03 -3.99731740e+03 -3.97529606e+03 -4.03544089e+03 -4.01223336e+03 -3.98902583e+03 -3.96581830e+03 -4.02952168e+03 -4.00512796e+03 -3.98073425e+03 -3.95634054e+03 -4.02360247e+03 -3.99802257e+03 -3.97244267e+03 -3.94686278e+03 
        </DataArray>
      </PointData>
    </Piece>
    <Piece NumberOfPoints="16" NumberOfCells="9">
      <Points>
        <DataArray type="Float64" NumberOfComponents="3" format="ascii">
          3.00000000e+00 1.00000000e+00 0.00000000e+00 
4.00000000e+00 1.00000000e+00 0.00000000e+00 
5.00000000e+00 1.00000000e+00 0.00000000e+00 
6.00000000e+00 1.00000000e+00 0.00000000e+00 
3.00000000e+00 1.33333337e+00 0.00000000e+00 
4.00000000e+00 1.33333337e+00 0.00000000e+00 
5.00000000e+00 1.33333337e+00 0.00000000e+00 
6.00000000e+00 1.33333337e+00 0.00000000e+00 
3.00000000e+00 1.66666663e+00 0.00000000e+00 
4.00000000e+00 1.66666663e+00 0.00000000e+00 
5.00000000e+00 1.66666663e+00 0.00000000e+00 
6.00000000e+00 1.66666663e+00 0.00000000e+00 
3.00000000e+00 2.00000000e+00 0.00000000e+00 
4.00000000e+00 2.00000000e+00 0.00000000e+00 
5.00000000e+00 2.00000000e+00 0.00000000e+00 
6.00000000e+00 2.00000000e+00 0.00000000e+00 

        </DataArray>
      </Points>
      <Cells>
        <DataArray type="Int32" Name="connectivity" format="ascii">
0 1 5 4
4 5 9 8
8 9 13 12
1 2 6 5
5 6 10 9
9 10 14 13
2 3 7 6
6 7 11 10
10 11 15 14

        </DataArray>
        <DataArray type="Int32" Name="offsets" format="ascii">
4 8 12 16 20 24 28 32 36 
        </DataArray>
        <DataArray type="UInt8" Name="types" format="ascii">
9 9 9 9 9 9 9 9 9 
        </DataArray>
      </Cells>
      <PointData>
        <DataArray type="Float64" Name="u">
          0.00000000e+00 -7.07591220e+00 -1.30566379e+01 -2.16012273e+01 0.00000000e+00 -7.65973905e+00 -1.33022709e+01 -2.00645994e+01 0.00000000e+00 -7.10279052e+00 -1.04489839e+01 -1.27206219e+01 0.00000000e+00 -4.97110994e+00 -3.83948210e+00 1.02237870e+00 
        </DataArray>
        <DataArray type="Float64" Name="v">
          0.00000000e+00 5.15840188e+00 5.24370017e+00 3.27415564e+00 0.00000000e+00 8.50193420e+00 8.07038639e+00 4.66345189e+00 0.00000000e+00 1.10855766e+01 9.84317901e+00 4.68788240e+00 0.00000000e+00 1.35237367e+01 1.02412931e+01 2.83020986e+00 
        </DataArray>
        <DataArray type="Float64" Name="p">
          -4.01570425e+03 -3.99684414e+03 -3.97798404e+03 -3.95912393e+03 -4.04187636e+03 -4.03333250e+03 -4.02478864e+03 -4.01624479e+03 -4.06804847e+03 -4.06982086e+03 -4.07159325e+03 -4.07336564e+03 -4.09422058e+03 -4.10630922e+03 -4.11839786e+03 -4.13048650e+03 
        </DataArray>
      </PointData>
    </Piece>
    <Piece NumberOfPoints="16" NumberOfCells="9">
      <Points>
        <DataArray type="Float64" NumberOfComponents="3" format="ascii">
          3.00000000e+00 2.00000000e+00 0.00000000e+00 
4.00000000e+00 2.00000000e+00 0.00000000e+00 
5.00000000e+00 2.00000000e+00 0.00000000e+00 
6.00000000e+00 2.00000000e+00 0.00000000e+00 
3.00000000e+00 2.33333325e+00 0.00000000e+00 
4.00000000e+00 2.33333325e+00 0.00000000e+00 
5.00000000e+00 2.33333325e+00 0.00000000e+00 
6.00000000e+00 2.33333325e+00 0.00000000e+00 
3.00000000e+00 2.66666675e+00 0.00000000e+00 
4.00000000e+00 2.66666675e+00 0.00000000e+00 
5.00000000e+00 2.66666675e+00 0.00000000e+00 
6.00000000e+00 2.66666675e+00 0.00000000e+00 
3.00000000e+00 3.00000000e+00 0.00000000e+00 
4.00000000e+00 3.00000000e+00 0.00000000e+00 
5.00000000e+00 3.00000000e+00 0.00000000e+00 
6.00000000e+00 3.00000000e+00 0.00000000e+00 

        </DataArray>
      </Points>
      <Cells>
        <DataArray type="Int32" Name="connectivity" format="ascii">
0 1 5 4
4 5 9 8
8 9 13 12
1 2 6 5
5 6 10 9
9 10 14 13
2 3 7 6
6 7 11 10
10 11 15 14

        </DataArray>
        <DataArray type="Int32" Name="offsets" format="ascii">
4 8 12 16 20 24 28 32 36 
        </DataArray>
        <DataArray type="UInt8" Name="types" format="ascii">
9 9 9 9 9 9 9 9 9 
        </DataArray>
      </Cells>
      <PointData>
        <DataArray type="Float64" Name="u">
          0.00000000e+00 -4.97110994e+00 -3.83948210e+00 1.02237870e+00 0.00000000e+00 -1.22154947e-02 7.07559502e+00 2.35639011e+01 0.00000000e+00 1.45475145e+01 2.87580676e+01 5.49021149e+01 0.00000000e+00 5.62663469e+01 7.21421586e+01 9.96148916e+01 
        </DataArray>
        <DataArray type="Float64" Name="v">
          0.00000000e+00 1.35237367e+01 1.02412931e+01 2.83020986e+00 0.00000000e+00 1.44768632e+01 6.71941932e+00 -3.10717502e+00 0.00000000e+00 1.08043650e+01 2.73817898e+00 -7.66605137e+00 0.00000000e+00 -1.19661427e+00 -7.07853882e+00 -1.30610142e+01 
        </DataArray>
        <DataArray type="Float64" Name="p">
          -4.06655385e+03 -4.11524108e+03 -4.16392831e+03 -4.21261553e+03 -4.21742910e+03 -4.17238241e+03 -4.12733571e+03 -4.08228901e+03 -4.36830436e+03 -4.22952374e+03 -4.09074311e+03 -3.95196249e+03 -4.51917962e+03 -4.28666507e+03 -4.05415052e+03 -3.82163597e+03 
        </DataArray>
      </PointData>
    </Piece>
    <Piece NumberOfPoints="16" NumberOfCells="9">
      <Points>
        <DataArray type="Float64" NumberOfComponents="3" format="ascii">
          3.00000000e+00 3.00000000e+00 0.00000000e+00 
4.00000000e+00 3.00000000e+00 0.00000000e+00 
5.00000000e+00 3.00000000e+00 0.00000000e+00 
6.00000000e+00 3.00000000e+00 0.00000000e+00 
3.00000000e+00 3.33333325e+00 0.00000000e+00 
4.00000000e+00 3.33333325e+00 0.00000000e+00 
5.00000000e+00 3.33333325e+00 0.00000000e+00 
6.00000000e+00 3.33333325e+00 0.00000000e+00 
3.00000000e+00 3.66666675e+00 0.00000000e+00 
4.00000000e+00 3.66666675e+00 0.00000000e+00 
5.00000000e+00 3.66666675e+00 0.00000000e+00 
6.00000000e+00 3.66666675e+00 0.00000000e+00 
3.00000000e+00 4.00000000e+00 0.00000000e+00 
4.00000000e+00 4.00000000e+00 0.00000000e+00 
5.00000000e+00 4.00000000e+00 0.00000000e+00 
6.00000000e+00 4.00000000e+00 0.00000000e+00 

        </DataArray>
      </Points>
      <Cells>
        <DataArray type="Int32" Name="connectivity" format="ascii">
0 1 5 4
4 5 9 8
8 9 13 12
1 2 6 5
5 6 10 9
9 10 14 13
2 3 7 6
6 7 11 10
10 11 15 14

        </DataArray>
        <DataArray type="Int32" Name="offsets" format="ascii">
4 8 12 16 20 24 28 32 36 
        </DataArray>
        <DataArray type="UInt8" Name="types" format="ascii">
9 9 9 9 9 9 9 9 9 
        </DataArray>
      </Cells>
      <PointData>
        <DataArray type="Float64" Name="u">
          0.00000000e+00 5.62663469e+01 7.21421586e+01 9.96148916e+01 1.03979278e+02 1.14274059e+02 1.29269868e+02 1.44835102e+02 1.66369664e+02 1.69000036e+02 1.77038415e+02 1.83861647e+02 2.07112670e+02 2.04233487e+02 2.08360304e+02 2.06846119e+02 
        </DataArray>
        <DataArray type="Float64" Name="v">
          0.00000000e+00 -1.19661427e+00 -7.07853882e+00 -1.30610142e+01 -4.35185394e+00 -1.27676637e+01 -1.59661376e+01 -1.70736499e+01 -4.33091976e+00 -1.23606005e+01 -1.68498595e+01 -1.88926853e+01 -7.02755178e+00 -1.41459957e+01 -1.89000623e+01 -2.31846682e+01 
        </DataArray>
        <DataArray type="Float64" Name="p">
          -4.66973702e+03 -4.37045684e+03 -4.07117666e+03 -3.77189648e+03 -4.19354112e+03 -4.05467335e+03 -3.91580557e+03 -3.77693780e+03 -3.71734523e+03 -3.73888986e+03 -3.76043449e+03 -3.78197912e+03 -3.24114933e+03 -3.42310637e+03 -3.60506340e+03 -3.78702044e+03 
        </DataArray>
      </PointData>
    </Piece>
    <Piece NumberOfPoints="16" NumberOfCells="9">
      <Points>
        <DataArray type="Float64" NumberOfComponents="3" format="ascii">
          3.00000000e+00 4.00000000e+00 0.00000000e+00 
4.00000000e+00 4.00000000e+00 0.00000000e+00 
5.00000000e+00 4.00000000e+00 0.00000000e+00 
6.00000000e+00 4.00000000e+00 0.00000000e+00 
3.00000000e+00 4.33333349e+00 0.00000000e+00 
4.00000000e+00 4.33333349e+00 0.00000000e+00 
5.00000000e+00 4.33333349e+00 0.00000000e+00 
6.00000000e+00 4.33333349e+00 0.00000000e+00 
3.00000000e+00 4.66666651e+00 0.00000000e+00 
4.00000000e+00 4.66666651e+00 0.00000000e+00 
5.00000000e+00 4.66666651e+00 0.00000000e+00 
6.00000000e+00 4.66666651e+00 0.00000000e+00 
3.00000000e+00 5.00000000e+00 0.00000000e+00 
4.00000000e+00 5.00000000e+00 0.00000000e+00 
5.00000000e+00 5.00000000e+00 0.00000000e+00 
6.00000000e+00 5.00000000e+00 0.00000000e+00 

        </DataArray>
      </Points>
      <Cells>
        <DataArray type="Int32" Name="connectivity" format="ascii">
0 1 5 4
4 5 9 8
8 9 13 12
1 2 6 5
5 6 10 9
9 10 14 13
2 3 7 6
6 7 11 10
10 11 15 14

        </DataArray>
        <DataArray type="Int32" Name="offsets" format="ascii">
4 8 12 16 20 24 28 32 36 
        </DataArray>
        <DataArray type="UInt8" Name="types" format="ascii">
9 9 9 9 9 9 9 9 9 
        </DataArray>
      </Cells>
      <PointData>
        <DataArray type="Float64" Name="u">
          2.07112670e+02 2.04233487e+02 2.08360304e+02 2.06846119e+02 2.24243202e+02 2.19196735e+02 2.17604552e+02 2.10640227e+02 2.19213991e+02 2.11311253e+02 2.05787671e+02 1.93563173e+02 1.92285005e+02 1.83073915e+02 1.74808529e+02 1.59710104e+02 
        </DataArray>
        <DataArray type="Float64" Name="v">
          -7.02755178e+00 -1.41459957e+01 -1.89000623e+01 -2.31846682e+01 -7.16063649e+00 -1.19883846e+01 -1.73775382e+01 -2.25498521e+01 -7.24809188e+00 -1.17693683e+01 -1.58965987e+01 -2.06139968e+01 -6.17503679e+00 -7.45421259e+00 -1.14344603e+01 -1.63083938e+01 
        </DataArray>
        <DataArray type="Float64" Name="p">
          -3.12108539e+03 -3.31952420e+03 -3.51796301e+03 -3.71640181e+03 -2.78262057e+03 -2.95718255e+03 -3.13174452e+03 -3.30630650e+03 -2.44415576e+03 -2.59484090e+03 -2.74552604e+03 -2.89621119e+03 -2.10569094e+03 -2.23249925e+03 -2.35930756e+03 -2.48611587e+03 
        </DataArray>
      </PointData>
    </Piece>
    <Piece NumberOfPoints="16" NumberOfCells="9">
      <Points>
        <DataArray type="Float64" NumberOfComponents="3" format="ascii">
          3.00000000e+00 5.00000000e+00 0.00000000e+00 
4.00000000e+00 5.00000000e+00 0.00000000e+00 
5.00000000e+00 5.00000000e+00 0.00000000e+00 
6.00000000e+00 5.00000000e+00 0.00000000e+00 
3.00000000e+00 5.33333349e+00 0.00000000e+00 
4.00000000e+00 5.33333349e+00 0.00000000e+00 
5.00000000e+00 5.33333349e+00 0.00000000e+00 
6.00000000e+00 5.33333349e+00 0.00000000e+00 
3.00000000e+00 5.66666651e+00 0.00000000e+00 
4.00000000e+00 5.66666651e+00 0.00000000e+00 
5.00000000e+00 5.66666651e+00 0.00000000e+00 
6.00000000e+00 5.66666651e+00 0.00000000e+00 
3.00000000e+00 6.00000000e+00 0.00000000e+00 
4.00000000e+00 6.00000000e+00 0.00000000e+00 
5.00000000e+00 6.00000000e+00 0.00000000e+00 
6.00000000e+00 6.00000000e+00 0.00000000e+00 

        </DataArray>
      </Points>
      <Cells>
        <DataArray type="Int32" Name="connectivity" format="ascii">
0 1 5 4
4 5 9 8
8 9 13 12
1 2 6 5
5 6 10 9
9 10 14 13
2 3 7 6
6 7 11 10
10 11 15 14

        </DataArray>
        <DataArray type="Int32" Name="offsets" format="ascii">
4 8 12 16 20 24 28 32 36 
        </DataArray>
        <DataArray type="UInt8" Name="types" format="ascii">
9 9 9 9 9 9 9 9 9 
        </DataArray>
      </Cells>
      <PointData>
        <DataArray type="Float64" Name="u">
          1.92285005e+02 1.83073915e+02 1.74808529e+02 1.59710104e+02 1.44563094e+02 1.34893699e+02 1.26394025e+02 1.12725984e+02 7.53656539e+01 7.57374015e+01 7.14126871e+01 6.59566160e+01 0.00000000e+00 3.08666859e+01 2.93933866e+01 3.57064844e+01 
        </DataArray>
        <DataArray type="Float64" Name="v">
          -6.17503679e+00 -7.45421259e+00 -1.14344603e+01 -1.63083938e+01 -3.89172095e+00 -2.93174651e+00 -5.43603767e+00 -1.04147450e+01 -2.52400979e+00 -2.86297547e+00 -6.22952158e+00 -8.68816003e+00 0.00000000e+00 -6.72595053e+00 -5.10488739e+00 -3.45464826e+00 
        </DataArray>
        <DataArray type="Float64" Name="p">
          -2.15729154e+03 -2.21692953e+03 -2.27656753e+03 -2.33620553e+03 -2.24970264e+03 -2.21743314e+03 -2.18516364e+03 -2.15289414e+03 -2.34211374e+03 -2.21793674e+03 -2.09375975e+03 -1.96958276e+03 -2.43452484e+03 -2.21844035e+03 -2.00235586e+03 -1.78627137e+03 
        </DataArray>
      </PointData>
    </Piece>
    <Piece NumberOfPoints="16" NumberOfCells="9">
      <Points>
        <DataArray type="Float64" NumberOfComponents="3" format="ascii">
          3.00000000e+00 6.00000000e+00 0.00000000e+00 
4.00000000e+00 6.00000000e+00 0.00000000e+00 
5.00000000e+00 6.00000000e+00 0.00000000e+00 
6.00000000e+00 6.00000000e+00 0.00000000e+00 
3.00000000e+00 6.33333349e+00 0.00000000e+00 
4.00000000e+00 6.33333349e+00 0.00000000e+00 
5.00000000e+00 6.33333349e+00 0.00000000e+00 
6.00000000e+00 6.33333349e+00 0.00000000e+00 
3.00000000e+00 6.66666651e+00 0.00000000e+00 
4.00000000e+00 6.66666651e+00 0.00000000e+00 
5.00000000e+00 6.66666651e+00 0.00000000e+00 
6.00000000e+00 6.66666651e+00 0.00000000e+00 
3.00000000e+00 7.00000000e+00 0.00000000e+00 
4.00000000e+00 7.00000000e+00 0.00000000e+00 
5.00000000e+00 7.00000000e+00 0.00000000e+00 
6.00000000e+00 7.00000000e+00 0.00000000e+00 

        </DataArray>
      </Points>
      <Cells>
        <DataArray type="Int32" Name="connectivity" format="ascii">
0 1 5 4
4 5 9 8
8 9 13 12
1 2 6 5
5 6 10 9
9 10 14 13
2 3 7 6
6 7 11 10
10 11 15 14

        </DataArray>
        <DataArray type="Int32" Name="offsets" format="ascii">
4 8 12 16 20 24 28 32 36 
        </DataArray>
        <DataArray type="UInt8" Name="types" format="ascii">
9 9 9 9 9 9 9 9 9 
        </DataArray>
      </Cells>
      <PointData>
        <DataArray type="Float64" Name="u">
          0.00000000e+00 3.08666859e+01 2.93933866e+01 3.57064844e+01 0.00000000e+00 5.41484792e+00 7.57182593e+00 1.25757138e+01 0.00000000e+00 -3.02439739e+00 -2.78132963e+00 -1.79446691e+00 0.00000000e+00 -5.71089609e+00 -7.70941410e+00 -1.03858401e+01 
        </DataArray>
        <DataArray type="Float64" Name="v">
          0.00000000e+00 -6.72595053e+00 -5.10488739e+00 -3.45464826e+00 0.00000000e+00 -1.18823397e+01 -7.38494271e+00 -3.00424906e+00 0.00000000e+00 -1.25287787e+01 -7.28144192e+00 -3.39785576e+00 0.00000000e+00 -1.06946735e+01 -7.35589019e+00 -4.01693263e+00 
        </DataArray>
        <DataArray type="Float64" Name="p">
          -2.41597794e+03 -2.26220487e+03 -2.10843180e+03 -1.95465872e+03 -2.31348285e+03 -2.20769446e+03 -2.10190606e+03 -1.99611767e+03 -2.21098777e+03 -2.15318405e+03 -2.09538033e+03 -2.03757661e+03 -2.10849268e+03 -2.09867364e+03 -2.08885460e+03 -2.07903556e+03 
        </DataArray>
      </PointData>
    </Piece>
    <Piece NumberOfPoints="16" NumberOfCells="9">
      <Points>
        <DataArray type="Float64" NumberOfComponents="3" format="ascii">
          3.00000000e+00 7.00000000e+00 0.00000000e+00 
4.00000000e+00 7.00000000e+00 0.00000000e+00 
5.00000000e+00 7.00000000e+00 0.00000000e+00 
6.00000000e+00 7.00000000e+00 0.00000000e+00 
3.00000000e+00 7.33333349e+00 0.00000000e+00 
4.00000000e+00 7.33333349e+00 0.00000000e+00 
5.00000000e+00 7.33333349e+00 0.00000000e+00 
6.00000000e+00 7.33333349e+00 0.00000000e+00 
3.00000000e+00 7.66666651e+00 0.00000000e+00 
4.00000000e+00 7.66666651e+00 0.00000000e+00 
5.00000000e+00 7.66666651e+00 0.00000000e+00 
6.00000000e+00 7.66666651e+00 0.00000000e+00 
3.00000000e+00 8.00000000e+00 0.00000000e+00 
4.00000000e+00 8.00000000e+00 0.00000000e+00 
5.00000000e+00 8.00000000e+00 0.00000000e+00 
6.00000000e+00 8.00000000e+00 0.00000000e+00 

        </DataArray>
      </Points>
      <Cells>
        <DataArray type="Int32" Name="connectivity" format="ascii">
0 1 5 4
4 5 9 8
8 9 13 12
1 2 6 5
5 6 10 9
9 10 14 13
2 3 7 6
6 7 11 10
10 11 15 14

        </DataArray>
        <DataArray type="Int32" Name="offsets" format="ascii">
4 8 12 16 20 24 28 32 36 
        </DataArray>
        <DataArray type="UInt8" Name="types" format="ascii">
9 9 9 9 9 9 9 9 9 
        </DataArray>
      </Cells>
      <PointData>
        <DataArray type="Float64" Name="u">
          0.00000000e+00 -5.71089609e+00 -7.70941410e+00 -1.03858401e+01 0.00000000e+00 -6.39151119e+00 -9.94125975e+00 -1.42062532e+01 0.00000000e+00 -6.04840871e+00 -1.01317779e+01 -1.50414766e+01 0.00000000e+00 -5.11128549e+00 -8.87767610e+00 -1.36183793e+01 
        </DataArray>
        <DataArray type="Float64" Name="v">
          0.00000000e+00 -1.06946735e+01 -7.35589019e+00 -4.01693263e+00 0.00000000e+00 -8.15001535e+00 -6.00792371e+00 -3.60367991e+00 0.00000000e+00 -5.99875529e+00 -4.61597068e+00 -2.88818329e+00 0.00000000e+00 -3.48989504e+00 -2.86313182e+00 -1.86040691e+00 
        </DataArray>
        <DataArray type="Float64" Name="p">
          -2.11628012e+03 -2.09190774e+03 -2.06753537e+03 -2.04316299e+03 -2.08826083e+03 -2.06809000e+03 -2.04791916e+03 -2.02774833e+03 -2.06024154e+03 -2.04427225e+03 -2.02830296e+03 -2.01233366e+03 -2.03222226e+03 -2.02045450e+03 -2.00868675e+03 -1.99691900e+03 
        </DataArray>
      </PointData>
    </Piece>
    <Piece NumberOfPoints="16" NumberOfCells="9">
      <Points>
        <DataArray type="Float64" NumberOfComponents="3" format="ascii">
          3.00000000e+00 8.00000000e+00 0.00000000e+00 
4.00000000e+00 8.00000000e+00 0.00000000e+00 
5.00000000e+00 8.00000000e+00 0.00000000e+00 
6.00000000e+00 8.00000000e+00 0.00000000e+00 
3.00000000e+00 8.33333302e+00 0.00000000e+00 
4.00000000e+00 8.33333302e+00 0.00000000e+00 
5.00000000e+00 8.33333302e+00 0.00000000e+00 
6.00000000e+00 8.33333302e+00 0.00000000e+00 
3.00000000e+00 8.66666698e+00 0.00000000e+00 
4.00000000e+00 8.66666698e+00 0.00000000e+00 
5.00000000e+00 8.66666698e+00 0.00000000e+00 
6.00000000e+00 8.66666698e+00 0.00000000e+00 
3.00000000e+00 9.00000000e+00 0.00000000e+00 
4.00000000e+00 9.00000000e+00 0.00000000e+00 
5.00000000e+00 9.00000000e+00 0.00000000e+00 
6.00000000e+00 9.00000000e+00 0.00000000e+00 

        </DataArray>
      </Points>
      <Cells>
        <DataArray type="Int32" Name="connectivity" format="ascii">
0 1 5 4
4 5 9 8
8 9 13 12
1 2 6 5
5 6 10 9
9 10 14 13
2 3 7 6
6 7 11 10
10 11 15 14

        </DataArray>
        <DataArray type="Int32" Name="offsets" format="ascii">
4 8 12 16 20 24 28 32 36 
        </DataArray>
        <DataArray type="UInt8" Name="types" format="ascii">
9 9 9 9 9 9 9 9 9 
        </DataArray>
      </Cells>
      <PointData>
        <DataArray type="Float64" Name="u">
          0.00000000e+00 -5.11128549e+00 -8.87767610e+00 -1.36183793e+01 0.00000000e+00 -3.77140351e+00 -6.57835241e+00 -1.04952862e+01 0.00000000e+00 -2.06742956e+00 -3.52448202e+00 -5.88474154e+00 0.00000000e+00 0.00000000e+00 0.00000000e+00 0.00000000e+00 
        </DataArray>
        <DataArray type="Float64" Name="v">
          0.00000000e+00 -3.48989504e+00 -2.86313182e+00 -1.86040691e+00 0.00000000e+00 -1.56059817e+00 -1.35751874e+00 -8.55304482e-01 0.00000000e+00 -4.98365330e-01 -4.67977928e-01 -2.83783916e-01 0.00000000e+00 0.00000000e+00 0.00000000e+00 0.00000000e+00 
        </DataArray>
        <DataArray type="Float64" Name="p">
          -2.03775930e+03 -2.02401181e+03 -2.01026432e+03 -1.99651683e+03 -2.04337234e+03 -2.02919373e+03 -2.01501511e+03 -2.00083650e+03 -2.04898539e+03 -2.03437565e+03 -2.01976590e+03 -2.00515616e+03 -2.05459844e+03 -2.03955757e+03 -2.02451670e+03 -2.00947582e+03 
        </DataArray>
      </PointData>
    </Piece>
    <Piece NumberOfPoints="16" NumberOfCells="9">
      <Points>
        <DataArray type="Float64" NumberOfComponents="3" format="ascii">
          6.00000000e+00 0.00000000e+00 0.00000000e+00 
7.00000000e+00 0.00000000e+00 0.00000000e+00 
8.00000000e+00 0.00000000e+00 0.00000000e+00 
9.00000000e+00 0.00000000e+00 0.00000000e+00 
6.00000000e+00 3.33333343e-01 0.00000000e+00 
7.00000000e+00 3.33333343e-01 0.00000000e+00 
8.00000000e+00 3.33333343e-01 0.00000000e+00 
9.00000000e+00 3.33333343e-01 0.00000000e+00 
6.00000000e+00 6.66666687e-01 0.00000000e+00 
7.00000000e+00 6.66666687e-01 0.00000000e+00 
8.00000000e+00 6.66666687e-01 0.00000000e+00 
9.00000000e+00 6.66666687e-01 0.00000000e+00 
6.00000000e+00 1.00000000e+00 0.00000000e+00 
7.00000000e+00 1.00000000e+00 0.00000000e+00 
8.00000000e+00 1.00000000e+00 0.00000000e+00 
9.00000000e+00 1.00000000e+00 0.00000000e+00 

        </DataArray>
      </Points>
      <Cells>
        <DataArray type="Int32" Name="connectivity" format="ascii">
0 1 5 4
4 5 9 8
8 9 13 12
1 2 6 5
5 6 10 9
9 10 14 13
2 3 7 6
6 7 11 10
10 11 15 14

        </DataArray>
        <DataArray type="Int32" Name="offsets" format="ascii">
4 8 12 16 20 24 28 32 36 
        </DataArray>
        <DataArray type="UInt8" Name="types" format="ascii">
9 9 9 9 9 9 9 9 9 
        </DataArray>
      </Cells>
      <PointData>
        <DataArray type="Float64" Name="u">