<?xml version="1.0"?>
<VTKFile type="UnstructuredGrid" version="0.1" byte_order="LittleEndian">
  <UnstructuredGrid>
    <Piece NumberOfPoints="16" NumberOfCells="9">
      <Points>
        <DataArray type="Float64" NumberOfComponents="3" format="ascii">
          0.00000000e+00 3.00000000e+00 0.00000000e+00 
1.00000000e+00 3.00000000e+00 0.00000000e+00 
2.00000000e+00 3.00000000e+00 0.00000000e+00 
3.00000000e+00 3.00000000e+00 0.00000000e+00 
0.00000000e+00 3.33333325e+00 0.00000000e+00 
1.00000000e+00 3.33333325e+00 0.00000000e+00 
2.00000000e+00 3.33333325e+00 0.00000000e+00 
3.00000000e+00 3.33333325e+00 0.00000000e+00 
0.00000000e+00 3.66666675e+00 0.00000000e+00 
1.00000000e+00 3.66666675e+00 0.00000000e+00 
2.00000000e+00 3.66666675e+00 0.00000000e+00 
3.00000000e+00 3.66666675e+00 0.00000000e+00 
0.00000000e+00 4.00000000e+00 0.00000000e+00 
1.00000000e+00 4.00000000e+00 0.00000000e+00 
2.00000000e+00 4.00000000e+00 0.00000000e+00 
3.00000000e+00 4.00000000e+00 0.00000000e+00 

        </DataArray>
      </Points>
      <Cells>
        <DataArray type="Int32" Name="connectivity" format="ascii">
0 1 5 4
4 5 9 8
8 9 13 12
1 2 6 5
5 6 10 9
9 10 14 13
2 3 7 6
6 7 11 10
10 11 15 14

        </DataArray>
        <DataArray type="Int32" Name="offsets" format="ascii">
4 8 12 16 20 24 28 32 36 
        </DataArray>
        <DataArray type="UInt8" Name="types" format="ascii">
9 9 9 9 9 9 9 9 9 
        </DataArray>
      </Cells>
      <PointData>
        <DataArray type="Float64" Name="u">
          0.00000000e+00 0.00000000e+00 0.00000000e+00 0.00000000e+00 8.88888889e+01 9.32784560e+01 9.14691975e+01 1.02668958e+02 1.55555556e+02 1.59335767e+02 1.58634694e+02 1.65879480e+02 2.00000000e+02 2.02184259e+02 2.02268737e+02 2.06661668e+02 
        </DataArray>
        <DataArray type="Float64" Name="v">
          0.00000000e+00 0.00000000e+00 0.00000000e+00 0.00000000e+00 0.00000000e+00 -1.17216775e+00 -1.74807621e+00 -4.23229763e+00 0.00000000e+00 -9.24666096e-01 -2.31942523e+00 -4.19295113e+00 0.00000000e+00 -2.34411053e+00 -4.17495807e+00 -6.76734320e+00 
        </DataArray>
        <DataArray type="Float64" Name="p">
          4.00133290e+02 -6.46388624e+02 -1.69291054e+03 -2.73943245e+03 4.22601993e+02 -6.04605195e+02 -1.63181238e+03 -2.65901957e+03 4.45070697e+02 -5.62821766e+02 -1.57071423e+03 -2.57860669e+03 4.67539400e+02 -5.21038336e+02 -1.50961607e+03 -2.49819381e+03 
        </DataArray>
      </PointData>
    </Piece>
    <Piece NumberOfPoints="16" NumberOfCells="9">
      <Points>
        <DataArray type="Float64" NumberOfComponents="3" format="ascii">
          0.00000000e+00 4.00000000e+00 0.00000000e+00 
1.00000000e+00 4.00000000e+00 0.00000000e+00 
2.00000000e+00 4.00000000e+00 0.00000000e+00 
3.00000000e+00 4.00000000e+00 0.00000000e+00 
0.00000000e+00 4.33333349e+00 0.00000000e+00 
1.00000000e+00 4.33333349e+00 0.00000000e+00 
2.00000000e+00 4.33333349e+00 0.00000000e+00 
3.00000000e+00 4.33333349e+00 0.00000000e+00 
0.00000000e+00 4.66666651e+00 0.00000000e+00 
1.00000000e+00 4.66666651e+00 0.00000000e+00 
2.00000000e+00 4.66666651e+00 0.00000000e+00 
3.00000000e+00 4.66666651e+00 0.00000000e+00 
0.00000000e+00 5.00000000e+00 0.00000000e+00 
1.00000000e+00 5.00000000e+00 0.00000000e+00 
2.00000000e+00 5.00000000e+00 0.00000000e+00 
3.00000000e+00 5.00000000e+00 0.00000000e+00 

        </DataArray>
      </Points>
      <Cells>
        <DataArray type="Int32" Name="connectivity" format="ascii">
0 1 5 4
4 5 9 8
8 9 13 12
1 2 6 5
5 6 10 9
9 10 14 13
2 3 7 6
6 7 11 10
10 11 15 14

        </DataArray>
        <DataArray type="Int32" Name="offsets" format="ascii">
4 8 12 16 20 24 28 32 36 
        </DataArray>
        <DataArray type="UInt8" Name="types" format="ascii">
9 9 9 9 9 9 9 9 9 
        </DataArray>
      </Cells>
      <PointData>
        <DataArray type="Float64" Name="u">
          2.00000000e+02 2.02184259e+02 2.02268737e+02 2.06661668e+02 2.22222222e+02 2.22894448e+02 2.22925951e+02 2.24115024e+02 2.22222222e+02 2.21196087e+02 2.21119099e+02 2.19236915e+02 2.00000000e+02 1.97488802e+02 1.97557651e+02 1.92545477e+02 
        </DataArray>
        <DataArray type="Float64" Name="v">
          0.00000000e+00 -2.34411053e+00 -4.17495807e+00 -6.76734320e+00 0.00000000e+00 -2.70183214e+00 -4.99224576e+00 -6.83353016e+00 0.00000000e+00 -2.72991621e+00 -4.90559673e+00 -6.97332495e+00 0.00000000e+00 -2.17532585e+00 -4.19404752e+00 -5.85963874e+00 
        </DataArray>
        <DataArray type="Float64" Name="p">
          4.94312719e+02 -4.90820703e+02 -1.47595413e+03 -2.46108755e+03 7.01433842e+02 -3.05609677e+02 -1.31265320e+03 -2.31969672e+03 9.08554965e+02 -1.20398651e+02 -1.14935227e+03 -2.17830588e+03 1.11567609e+03 6.48123753e+01 -9.86051337e+02 -2.03691505e+03 
        </DataArray>
      </PointData>
    </Piece>
    <Piece NumberOfPoints="16" NumberOfCells="9">
      <Points>
        <DataArray type="Float64" NumberOfComponents="3" format="ascii">
          0.00000000e+00 5.00000000e+00 0.00000000e+00 
1.00000000e+00 5.00000000e+00 0.00000000e+00 
2.00000000e+00 5.00000000e+00 0.00000000e+00 
3.00000000e+00 5.00000000e+00 0.00000000e+00 
0.00000000e+00 5.33333349e+00 0.00000000e+00 
1.00000000e+00 5.33333349e+00 0.00000000e+00 
2.00000000e+00 5.33333349e+00 0.00000000e+00 
3.00000000e+00 5.33333349e+00 0.00000000e+00 
0.00000000e+00 5.66666651e+00 0.00000000e+00 
1.00000000e+00 5.66666651e+00 0.00000000e+00 
2.00000000e+00 5.66666651e+00 0.00000000e+00 
3.00000000e+00 5.66666651e+00 0.00000000e+00 
0.00000000e+00 6.00000000e+00 0.00000000e+00 
1.00000000e+00 6.00000000e+00 0.00000000e+00 
2.00000000e+00 6.00000000e+00 0.00000000e+00 
3.00000000e+00 6.00000000e+00 0.00000000e+00 

        </DataArray>
      </Points>
      <Cells>
        <DataArray type="Int32" Name="connectivity" format="ascii">
0 1 5 4
4 5 9 8
8 9 13 12
1 2 6 5
5 6 10 9
9 10 14 13
2 3 7 6
6 7 11 10
10 11 15 14

        </DataArray>
        <DataArray type="Int32" Name="offsets" format="ascii">
4 8 12 16 20 24 28 32 36 
        </DataArray>
        <DataArray type="UInt8" Name="types" format="ascii">
9 9 9 9 9 9 9 9 9 
        </DataArray>
      </Cells>
      <PointData>
        <DataArray type="Float64" Name="u">
          2.00000000e+02 1.97488802e+02 1.97557651e+02 1.92545477e+02 1.55555556e+02 1.52021367e+02 1.52521106e+02 1.45120177e+02 8.88888889e+01 8.53850785e+01 8.62191177e+01 7.68413496e+01 0.00000000e+00 0.00000000e+00 0.00000000e+00 0.00000000e+00 
        </DataArray>
        <DataArray type="Float64" Name="v">
          0.00000000e+00 -2.17532585e+00 -4.19404752e+00 -5.85963874e+00 0.00000000e+00 -8.77108408e-01 -2.20033329e+00 -3.68209997e+00 0.00000000e+00 -9.42652796e-01 -1.97710338e+00 -2.15417154e+00 0.00000000e+00 0.00000000e+00 0.00000000e+00 0.00000000e+00 
        </DataArray>
        <DataArray type="Float64" Name="p">
          1.12808688e+03 9.12716251e+01 -9.45543632e+02 -1.98235889e+03 1.16517431e+03 1.34471225e+02 -8.96231858e+02 -1.92693494e+03 1.20226173e+03 1.77670825e+02 -8.46920084e+02 -1.87151099e+03 1.23934916e+03 2.20870424e+02 -7.97608309e+02 -1.81608704e+03 
        </DataArray>
      </PointData>
    </Piece>
    <Piece NumberOfPoints="16" NumberOfCells="9">
      <Points>
        <DataArray type="Float64" NumberOfComponents="3" format="ascii">
          3.00000000e+00 0.00000000e+00 0.00000000e+00 
4.00000000e+00 0.00000000e+00 0.00000000e+00 
5.00000000e+00 0.00000000e+00 0.00000000e+00 
6.00000000e+00 0.00000000e+00 0.00000000e+00 
3.00000000e+00 3.33333343e-01 0.00000000e+00 
4.00000000e+00 3.33333343e-01 0.00000000e+00 
5.00000000e+00 3.33333343e-01 0.00000000e+00 
6.00000000e+00 3.33333343e-01 0.00000000e+00 
3.00000000e+00 6.66666687e-01 0.00000000e+00 
4.00000000e+00 6.66666687e-01 0.00000000e+00 
5.00000000e+00 6.66666687e-01 0.00000000e+00 
6.00000000e+00 6.66666687e-01 0.00000000e+00 
3.00000000e+00 1.00000000e+00 0.00000000e+00 
4.00000000e+00 1.00000000e+00 0.00000000e+00 
5.00000000e+00 1.00000000e+00 0.00000000e+00 
6.00000000e+00 1.00000000e+00 0.00000000e+00 

        </DataArray>
      </Points>
      <Cells>
        <DataArray type="Int32" Name="connectivity" format="ascii">
0 1 5 4
4 5 9 8
8 9 13 12
1 2 6 5
5 6 10 9
9 10 14 13
2 3 7 6
6 7 11 10
10 11 15 14

        </DataArray>
        <DataArray type="Int32" Name="offsets" format="ascii">
4 8 12 16 20 24 28 32 36 
        </DataArray>
        <DataArray type="UInt8" Name="types" format="ascii">
9 9 9 9 9 9 9 9 9 
        </DataArray>
      </Cells>
      <PointData>
        <DataArray type="Float64" Name="u">
          0.00000000e+00 0.00000000e+00 0.00000000e+00 0.00000000e+00 0.00000000e+00 -3.60730026e+00 -6.21585566e+00 -1.10559815e+01 0.00000000e+00 -6.30304909e+00 -1.11102334e+01 -1.96119102e+01 0.00000000e+00 -7.94500031e+00 -1.38948455e+01 -2.30658511e+01 
        </DataArray>
        <DataArray type="Float64" Name="v">
          0.00000000e+00 0.00000000e+00 0.00000000e+00 0.00000000e+00 0.00000000e+00 8.93411816e-01 9.24884736e-01 7.56805191e-01 0.00000000e+00 2.64629769e+00 2.66473324e+00 1.84921931e+00 0.00000000e+00 5.72451615e+00 5.87487629e+00 3.55833141e+00 
        </DataArray>
        <DataArray type="Float64" Name="p">
          -3.28753928e+03 -3.24628216e+03 -3.20502504e+03 -3.16376792e+03 -3.27860371e+03 -3.23697533e+03 -3.19534695e+03 -3.15371858e+03 -3.26966813e+03 -3.22766850e+03 -3.18566887e+03 -3.14366923e+03 -3.26073256e+03 -3.21836167e+03 -3.17599078e+03 -3.13361989e+03 
        </DataArray>
      </PointData>
    </Piece>
    <Piece NumberOfPoints="16" NumberOfCells="9">
      <Points>
        <DataArray type="Float64" NumberOfComponents="3" format="ascii">
          3.00000000e+00 1.00000000e+00 0.00000000e+00 
4.00000000e+00 1.00000000e+00 0.00000000e+00 
5.00000000e+00 1.00000000e+00 0.00000000e+00 
6.00000000e+00 1.00000000e+00 0.00000000e+00 
3.00000000e+00 1.33333337e+00 0.00000000e+00 
4.00000000e+00 1.33333337e+00 0.00000000e+00 
5.00000000e+00 1.33333337e+00 0.00000000e+00 
6.00000000e+00 1.33333337e+00 0.00000000e+00 
3.00000000e+00 1.66666663e+00 0.00000000e+00 
4.00000000e+00 1.66666663e+00 0.00000000e+00 
5.00000000e+00 1.66666663e+00 0.00000000e+00 
6.00000000e+00 1.66666663e+00 0.00000000e+00 
3.00000000e+00 2.00000000e+00 0.00000000e+00 
4.00000000e+00 2.00000000e+00 0.00000000e+00 
5.00000000e+00 2.00000000e+00 0.00000000e+00 
6.00000000e+00 2.00000000e+00 0.00000000e+00 

        </DataArray>
      </Points>
      <Cells>
        <DataArray type="Int32" Name="connectivity" format="ascii">
0 1 5 4
4 5 9 8
8 9 13 12
1 2 6 5
5 6 10 9
9 10 14 13
2 3 7 6
6 7 11 10
10 11 15 14

        </DataArray>
        <DataArray type="Int32" Name="offsets" format="ascii">
4 8 12 16 20 24 28 32 36 
        </DataArray>
        <DataArray type="UInt8" Name="types" format="ascii">
9 9 9 9 9 9 9 9 9 
        </DataArray>
      </Cells>
      <PointData>
        <DataArray type="Float64" Name="u">
          0.00000000e+00 -7.94500031e+00 -1.38948455e+01 -2.30658511e+01 0.00000000e+00 -8.40967946e+00 -1.37804785e+01 -2.07042152e+01 0.00000000e+00 -7.57502563e+00 -1.03814140e+01 -1.22238280e+01 0.00000000e+00 -4.97123632e+00 -3.13144975e+00 2.78374946e+00 
        </DataArray>
        <DataArray type="Float64" Name="v">
          0.00000000e+00 5.72451615e+00 5.87487629e+00 3.55833141e+00 0.00000000e+00 9.30050430e+00 8.85115957e+00 4.68498065e+00 0.00000000e+00 1.20189171e+01 1.06417424e+01 4.48917535e+00 0.00000000e+00 1.44634521e+01 1.08207725e+01 2.19257877e+00 
        </DataArray>
        <DataArray type="Float64" Name="p">
          -3.25108553e+03 -3.21780059e+03 -3.18451564e+03 -3.15123070e+03 -3.28340385e+03 -3.26274653e+03 -3.24208922e+03 -3.22143190e+03 -3.31572218e+03 -3.30769248e+03 -3.29966279e+03 -3.29163310e+03 -3.34804050e+03 -3.35263843e+03 -3.35723637e+03 -3.36183430e+03 
        </DataArray>
      </PointData>
    </Piece>
    <Piece NumberOfPoints="16" NumberOfCells="9">
      <Points>
        <DataArray type="Float64" NumberOfComponents="3" format="ascii">
          3.00000000e+00 2.00000000e+00 0.00000000e+00 
4.00000000e+00 2.00000000e+00 0.00000000e+00 
5.00000000e+00 2.00000000e+00 0.00000000e+00 
6.00000000e+00 2.00000000e+00 0.00000000e+00 
3.00000000e+00 2.33333325e+00 0.00000000e+00 
4.00000000e+00 2.33333325e+00 0.00000000e+00 
5.00000000e+00 2.33333325e+00 0.00000000e+00 
6.00000000e+00 2.33333325e+00 0.00000000e+00 
3.00000000e+00 2.66666675e+00 0.00000000e+00 
4.00000000e+00 2.66666675e+00 0.00000000e+00 
5.00000000e+00 2.66666675e+00 0.00000000e+00 
6.00000000e+00 2.66666675e+00 0.00000000e+00 
3.00000000e+00 3.00000000e+00 0.00000000e+00 
4.00000000e+00 3.00000000e+00 0.00000000e+00 
5.00000000e+00 3.00000000e+00 0.00000000e+00 
6.00000000e+00 3.00000000e+00 0.00000000e+00 

        </DataArray>
      </Points>
      <Cells>
        <DataArray type="Int32" Name="connectivity" format="ascii">
0 1 5 4
4 5 9 8
8 9 13 12
1 2 6 5
5 6 10 9
9 10 14 13
2 3 7 6
6 7 11 10
10 11 15 14

        </DataArray>
        <DataArray type="Int32" Name="offsets" format="ascii">
4 8 12 16 20 24 28 32 36 
        </DataArray>
        <DataArray type="UInt8" Name="types" format="ascii">
9 9 9 9 9 9 9 9 9 
        </DataArray>
      </Cells>
      <PointData>
        <DataArray type="Float64" Name="u">
          0.00000000e+00 -4.97123632e+00 -3.13144975e+00 2.78374946e+00 0.00000000e+00 7.08205697e-01 8.54101203e+00 2.61733164e+01 0.00000000e+00 1.62503186e+01 3.08187046e+01 5.74492215e+01 0.00000000e+00 5.74504506e+01 7.27389742e+01 1.00327955e+02 
        </DataArray>
        <DataArray type="Float64" Name="v">
          0.00000000e+00 1.44634521e+01 1.08207725e+01 2.19257877e+00 0.00000000e+00 1.52493978e+01 6.97843274e+00 -3.92487545e+00 0.00000000e+00 1.10862736e+01 2.46525437e+00 -8.50289148e+00 0.00000000e+00 -1.41183709e+00 -7.41086998e+00 -1.34797323e+01 
        </DataArray>
        <DataArray type="Float64" Name="p">
          -3.31533929e+03 -3.36182616e+03 -3.40831304e+03 -3.45479991e+03 -3.50041997e+03 -3.43349184e+03 -3.36656370e+03 -3.29963556e+03 -3.68550066e+03 -3.50515751e+03 -3.32481436e+03 -3.14447121e+03 -3.87058134e+03 -3.57682318e+03 -3.28306502e+03 -2.98930686e+03 
        </DataArray>
      </PointData>
    </Piece>
    <Piece NumberOfPoints="16" NumberOfCells="9">
      <Points>
        <DataArray type="Float64" NumberOfComponents="3" format="ascii">
          3.00000000e+00 3.00000000e+00 0.00000000e+00 
4.00000000e+00 3.00000000e+00 0.00000000e+00 
5.00000000e+00 3.00000000e+00 0.00000000e+00 
6.00000000e+00 3.00000000e+00 0.00000000e+00 
3.00000000e+00 3.33333325e+00 0.00000000e+00 
4.00000000e+00 3.33333325e+00 0.00000000e+00 
5.00000000e+00 3.33333325e+00 0.00000000e+00 
6.00000000e+00 3.33333325e+00 0.00000000e+00 
3.00000000e+00 3.66666675e+00 0.00000000e+00 
4.00000000e+00 3.66666675e+00 0.00000000e+00 
5.00000000e+00 3.66666675e+00 0.00000000e+00 
6.00000000e+00 3.66666675e+00 0.00000000e+00 
3.00000000e+00 4.00000000e+00 0.00000000e+00 
4.00000000e+00 4.00000000e+00 0.00000000e+00 
5.00000000e+00 4.00000000e+00 0.00000000e+00 
6.00000000e+00 4.00000000e+00 0.00000000e+00 

        </DataArray>
      </Points>
      <Cells>
        <DataArray type="Int32" Name="connectivity" format="ascii">
0 1 5 4
4 5 9 8
8 9 13 12
1 2 6 5
5 6 10 9
9 10 14 13
2 3 7 6
6 7 11 10
10 11 15 14

        </DataArray>
        <DataArray type="Int32" Name="offsets" format="ascii">
4 8 12 16 20 24 28 32 36 
        </DataArray>
        <DataArray type="UInt8" Name="types" format="ascii">
9 9 9 9 9 9 9 9 9 
        </DataArray>
      </Cells>
      <PointData>
        <DataArray type="Float64" Name="u">
          0.00000000e+00 5.74504506e+01 7.27389742e+01 1.00327955e+02 1.02668958e+02 1.13296472e+02 1.28082393e+02 1.43244424e+02 1.65879480e+02 1.67585994e+02 1.75476983e+02 1.81422072e+02 2.06661668e+02 2.02909217e+02 2.06742869e+02 2.03985832e+02 
        </DataArray>
        <DataArray type="Float64" Name="v">
          0.00000000e+00 -1.41183709e+00 -7.41086998e+00 -1.34797323e+01 -4.23229763e+00 -1.30096237e+01 -1.59962221e+01 -1.68725721e+01 -4.19295113e+00 -1.29559589e+01 -1.73408903e+01 -1.89564701e+01 -6.76734320e+00 -1.42052931e+01 -1.88138581e+01 -2.27918213e+01 
        </DataArray>
        <DataArray type="Float64" Name="p">
          -4.02641171e+03 -3.65680642e+03 -3.28720114e+03 -2.91759586e+03 -3.50420881e+03 -3.32129783e+03 -3.13838685e+03 -2.95547587e+03 -2.98200591e+03 -2.98578923e+03 -2.98957256e+03 -2.99335588e+03 -2.45980301e+03 -2.65028064e+03 -2.84075826e+03 -3.03123589e+03 
        </DataArray>
      </PointData>
    </Piece>
    <Piece NumberOfPoints="16" NumberOfCells="9">
      <Points>
        <DataArray type="Float64" NumberOfComponents="3" format="ascii">
          3.00000000e+00 4.00000000e+00 0.00000000e+00 
4.00000000e+00 4.00000000e+00 0.00000000e+00 
5.00000000e+00 4.00000000e+00 0.00000000e+00 
6.00000000e+00 4.00000000e+00 0.00000000e+00 
3.00000000e+00 4.33333349e+00 0.00000000e+00 
4.00000000e+00 4.33333349e+00 0.00000000e+00 
5.00000000e+00 4.33333349e+00 0.00000000e+00 
6.00000000e+00 4.33333349e+00 0.00000000e+00 
3.00000000e+00 4.66666651e+00 0.00000000e+00 
4.00000000e+00 4.66666651e+00 0.00000000e+00 
5.00000000e+00 4.66666651e+00 0.00000000e+00 
6.00000000e+00 4.66666651e+00 0.00000000e+00 
3.00000000e+00 5.00000000e+00 0.00000000e+00 
4.00000000e+00 5.00000000e+00 0.00000000e+00 
5.00000000e+00 5.00000000e+00 0.00000000e+00 
6.00000000e+00 5.00000000e+00 0.00000000e+00 

        </DataArray>
      </Points>
      <Cells>
        <DataArray type="Int32" Name="connectivity" format="ascii">
0 1 5 4
4 5 9 8
8 9 13 12
1 2 6 5
5 6 10 9
9 10 14 13
2 3 7 6
6 7 11 10
10 11 15 14

        </DataArray>
        <DataArray type="Int32" Name="offsets" format="ascii">
4 8 12 16 20 24 28 32 36 
        </DataArray>
        <DataArray type="UInt8" Name="types" format="ascii">
9 9 9 9 9 9 9 9 9 
        </DataArray>
      </Cells>
      <PointData>
        <DataArray type="Float64" Name="u">
          2.06661668e+02 2.02909217e+02 2.06742869e+02 2.03985832e+02 2.24115024e+02 2.17936920e+02 2.16189967e+02 2.08189817e+02 2.19236915e+02 2.10508649e+02 2.04907209e+02 1.92078142e+02 1.92545477e+02 1.82744189e+02 1.74661111e+02 1.59480009e+02 
        </DataArray>
        <DataArray type="Float64" Name="v">
          -6.76734320e+00 -1.42052931e+01 -1.88138581e+01 -2.27918213e+01 -6.83353016e+00 -1.16624716e+01 -1.70334469e+01 -2.21277090e+01 -6.97332495e+00 -1.12244931e+01 -1.51694511e+01 -1.99229577e+01 -5.85963874e+00 -6.65499676e+00 -1.06614554e+01 -1.58098746e+01 
        </DataArray>
        <DataArray type="Float64" Name="p">
          -2.31197405e+03 -2.53206848e+03 -2.75216291e+03 -2.97225734e+03 -1.98397095e+03 -2.17565435e+03 -2.36733775e+03 -2.55902115e+03 -1.65596784e+03 -1.81924021e+03 -1.98251258e+03 -2.14578496e+03 -1.32796473e+03 -1.46282607e+03 -1.59768742e+03 -1.73254876e+03 
        </DataArray>
      </PointData>
    </Piece>
    <Piece NumberOfPoints="16" NumberOfCells="9">
      <Points>
        <DataArray type="Float64" NumberOfComponents="3" format="ascii">
          3.00000000e+00 5.00000000e+00 0.00000000e+00 
4.00000000e+00 5.00000000e+00 0.00000000e+00 
5.00000000e+00 5.00000000e+00 0.00000000e+00 
6.00000000e+00 5.00000000e+00 0.00000000e+00 
3.00000000e+00 5.33333349e+00 0.00000000e+00 
4.00000000e+00 5.33333349e+00 0.00000000e+00 
5.00000000e+00 5.33333349e+00 0.00000000e+00 
6.00000000e+00 5.33333349e+00 0.00000000e+00 
3.00000000e+00 5.66666651e+00 0.00000000e+00 
4.00000000e+00 5.66666651e+00 0.00000000e+00 
5.00000000e+00 5.66666651e+00 0.00000000e+00 
6.00000000e+00 5.66666651e+00 0.00000000e+00 
3.00000000e+00 6.00000000e+00 0.00000000e+00 
4.00000000e+00 6.00000000e+00 0.00000000e+00 
5.00000000e+00 6.00000000e+00 0.00000000e+00 
6.00000000e+00 6.00000000e+00 0.00000000e+00 

        </DataArray>
      </Points>
      <Cells>
        <DataArray type="Int32" Name="connectivity" format="ascii">
0 1 5 4
4 5 9 8
8 9 13 12
1 2 6 5
5 6 10 9
9 10 14 13
2 3 7 6
6 7 11 10
10 11 15 14

        </DataArray>
        <DataArray type="Int32" Name="offsets" format="ascii">
4 8 12 16 20 24 28 32 36 
        </DataArray>
        <DataArray type="UInt8" Name="types" format="ascii">
9 9 9 9 9 9 9 9 9 
        </DataArray>
      </Cells>
      <PointData>
        <DataArray type="Float64" Name="u">
          1.92545477e+02 1.82744189e+02 1.74661111e+02 1.59480009e+02 1.45120177e+02 1.35705328e+02 1.27771267e+02 1.14868995e+02 7.68413496e+01 7.81805696e+01 7.46594945e+01 7.01957954e+01 0.00000000e+00 3.35426316e+01 3.24968121e+01 3.96549624e+01 
        </DataArray>
        <DataArray type="Float64" Name="v">
          -5.85963874e+00 -6.65499676e+00 -1.06614554e+01 -1.58098746e+01 -3.68209997e+00 -2.24740411e+00 -4.94324585e+00 -1.03426508e+01 -2.15417154e+00 -2.21330250e+00 -5.71481066e+00 -8.41631409e+00 0.00000000e+00 -6.72485352e+00 -5.10320311e+00 -3.43446188e+00 
        </DataArray>
        <DataArray type="Float64" Name="p">
          -1.39987328e+03 -1.45840628e+03 -1.51693928e+03 -1.57547228e+03 -1.52857503e+03 -1.47586193e+03 -1.42314882e+03 -1.37043572e+03 -1.65727679e+03 -1.49331757e+03 -1.32935836e+03 -1.16539915e+03 -1.78597854e+03 -1.51077322e+03 -1.23556790e+03 -9.60362583e+02 
        </DataArray>
      </PointData>
    </Piece>
    <Piece NumberOfPoints="16" NumberOfCells="9">
      <Points>
        <DataArray type="Float64" NumberOfComponents="3" format="ascii">
          3.00000000e+00 6.00000000e+00 0.00000000e+00 
4.00000000e+00 6.00000000e+00 0.00000000e+00 
5.00000000e+00 6.00000000e+00 0.00000000e+00 
6.00000000e+00 6.00000000e+00 0.00000000e+00 
3.00000000e+00 6.33333349e+00 0.00000000e+00 
4.00000000e+00 6.33333349e+00 0.00000000e+00 
5.00000000e+00 6.33333349e+00 0.00000000e+00 
6.00000000e+00 6.33333349e+00 0.00000000e+00 
3.00000000e+00 6.66666651e+00 0.00000000e+00 
4.00000000e+00 6.66666651e+00 0.00000000e+00 
5.00000000e+00 6.66666651e+00 0.00000000e+00 
6.00000000e+00 6.66666651e+00 0.00000000e+00 
3.00000000e+00 7.00000000e+00 0.00000000e+00 
4.00000000e+00 7.00000000e+00 0.00000000e+00 
5.00000000e+00 7.00000000e+00 0.00000000e+00 
6.00000000e+00 7.00000000e+00 0.00000000e+00 

        </DataArray>
      </Points>
      <Cells>
        <DataArray type="Int32" Name="connectivity" format="ascii">
0 1 5 4
4 5 9 8
8 9 13 12
1 2 6 5
5 6 10 9
9 10 14 13
2 3 7 6
6 7 11 10
10 11 15 14

        </DataArray>
        <DataArray type="Int32" Name="offsets" format="ascii">
4 8 12 16 20 24 28 32 36 
        </DataArray>
        <DataArray type="UInt8" Name="types" format="ascii">
9 9 9 9 9 9 9 9 9 
        </DataArray>
      </Cells>
      <PointData>
        <DataArray type="Float64" Name="u">
          0.00000000e+00 3.35426316e+01 3.24968121e+01 3.96549624e+01 0.00000000e+00 6.71902708e+00 9.44017538e+00 1.51475181e+01 0.00000000e+00 -2.80712816e+00 -2.08207927e+00 -5.93062977e-01 0.00000000e+00 -6.02411525e+00 -7.76393627e+00 -1.03704424e+01 
        </DataArray>
        <DataArray type="Float64" Name="v">
          0.00000000e+00 -6.72485352e+00 -5.10320311e+00 -3.43446188e+00 0.00000000e+00 -1.25678864e+01 -7.68401136e+00 -2.90472031e+00 0.00000000e+00 -1.35463291e+01 -7.80454722e+00 -3.33722425e+00 0.00000000e+00 -1.17135437e+01 -7.99149707e+00 -4.11947132e+00 
        </DataArray>
        <DataArray type="Float64" Name="p">
          -1.76258279e+03 -1.55729364e+03 -1.35200449e+03 -1.14671534e+03 -1.63207680e+03 -1.48894101e+03 -1.34580521e+03 -1.20266942e+03 -1.50157080e+03 -1.42058837e+03 -1.33960594e+03 -1.25862350e+03 -1.37106481e+03 -1.35223573e+03 -1.33340666e+03 -1.31457758e+03 
        </DataArray>
      </PointData>
    </Piece>
    <Piece NumberOfPoints="16" NumberOfCells="9">
      <Points>
        <DataArray type="Float64" NumberOfComponents="3" format="ascii">
          3.00000000e+00 7.00000000e+00 0.00000000e+00 
4.00000000e+00 7.00000000e+00 0.00000000e+00 
5.00000000e+00 7.00000000e+00 0.00000000e+00 
6.00000000e+00 7.00000000e+00 0.00000000e+00 
3.00000000e+00 7.33333349e+00 0.00000000e+00 
4.00000000e+00 7.33333349e+00 0.00000000e+00 
5.00000000e+00 7.33333349e+00 0.00000000e+00 
6.00000000e+00 7.33333349e+00 0.00000000e+00 
3.00000000e+00 7.66666651e+00 0.00000000e+00 
4.00000000e+00 7.66666651e+00 0.00000000e+00 
5.00000000e+00 7.66666651e+00 0.00000000e+00 
6.00000000e+00 7.66666651e+00 0.00000000e+00 
3.00000000e+00 8.00000000e+00 0.00000000e+00 
4.00000000e+00 8.00000000e+00 0.00000000e+00 
5.00000000e+00 8.00000000e+00 0.00000000e+00 
6.00000000e+00 8.00000000e+00 0.00000000e+00 

        </DataArray>
      </Points>
      <Cells>
        <DataArray type="Int32" Name="connectivity" format="ascii">
0 1 5 4
4 5 9 8
8 9 13 12
1 2 6 5
5 6 10 9
9 10 14 13
2 3 7 6
6 7 11 10
10 11 15 14

        </DataArray>
        <DataArray type="Int32" Name="offsets" format="ascii">
4 8 12 16 20 24 28 32 36 
        </DataArray>
        <DataArray type="UInt8" Name="types" format="ascii">
9 9 9 9 9 9 9 9 9 
        </DataArray>
      </Cells>
      <PointData>
        <DataArray type="Float64" Name="u">
          0.00000000e+00 -6.02411525e+00 -7.76393627e+00 -1.03704424e+01 0.00000000e+00 -6.97350070e+00 -1.04960038e+01 -1.50107429e+01 0.00000000e+00 -6.72966022e+00 -1.09546568e+01 -1.63196891e+01 0.00000000e+00 -5.77556213e+00 -9.76008657e+00 -1.50385039e+01 
        </DataArray>
        <DataArray type="Float64" Name="v">
          0.00000000e+00 -1.17135437e+01 -7.99149707e+00 -4.11947132e+00 0.00000000e+00 -9.03088567e+00 -6.61760788e+00 -3.79285560e+00 0.00000000e+00 -6.69126852e+00 -5.11549680e+00 -3.07907358e+00 0.00000000e+00 -3.93362974e+00 -3.20824531e+00 -2.00888776e+00 
        </DataArray>
        <DataArray type="Float64" Name="p">
          -1.38155209e+03 -1.34436894e+03 -1.30718578e+03 -1.27000263e+03 -1.34502664e+03 -1.31375003e+03 -1.28247342e+03 -1.25119681e+03 -1.30850119e+03 -1.28313112e+03 -1.25776105e+03 -1.23239099e+03 -1.27197575e+03 -1.25251222e+03 -1.23304869e+03 -1.21358516e+03 
        </DataArray>
      </PointData>
    </Piece>
    <Piece NumberOfPoints="16" NumberOfCells="9">
      <Points>
        <DataArray type="Float64" NumberOfComponents="3" format="ascii">
          3.00000000e+00 8.00000000e+00 0.00000000e+00 
4.00000000e+00 8.00000000e+00 0.00000000e+00 
5.00000000e+00 8.00000000e+00 0.00000000e+00 
6.00000000e+00 8.00000000e+00 0.00000000e+00 
3.00000000e+00 8.33333302e+00 0.00000000e+00 
4.00000000e+00 8.33333302e+00 0.00000000e+00 
5.00000000e+00 8.33333302e+00 0.00000000e+00 
6.00000000e+00 8.33333302e+00 0.00000000e+00 
3.00000000e+00 8.66666698e+00 0.00000000e+00 
4.00000000e+00 8.66666698e+00 0.00000000e+00 
5.00000000e+00 8.66666698e+00 0.00000000e+00 
6.00000000e+00 8.66666698e+00 0.00000000e+00 
3.00000000e+00 9.00000000e+00 0.00000000e+00 
4.00000000e+00 9.00000000e+00 0.00000000e+00 
5.00000000e+00 9.00000000e+00 0.00000000e+00 
6.00000000e+00 9.00000000e+00 0.00000000e+00 

        </DataArray>
      </Points>
      <Cells>
        <DataArray type="Int32" Name="connectivity" format="ascii">
0 1 5 4
4 5 9 8
8 9 13 12
1 2 6 5
5 6 10 9
9 10 14 13
2 3 7 6
6 7 11 10
10 11 15 14

        </DataArray>
        <DataArray type="Int32" Name="offsets" format="ascii">
4 8 12 16 20 24 28 32 36 
        </DataArray>
        <DataArray type="UInt8" Name="types" format="ascii">
9 9 9 9 9 9 9 9 9 
        </DataArray>
      </Cells>
      <PointData>
        <DataArray type="Float64" Name="u">
          0.00000000e+00 -5.77556213e+00 -9.76008657e+00 -1.50385039e+01 0.00000000e+00 -4.32371845e+00 -7.33086911e+00 -1.17502152e+01 0.00000000e+00 -2.40503939e+00 -3.97301324e+00 -6.67146308e+00 0.00000000e+00 0.00000000e+00 0.00000000e+00 0.00000000e+00 
        </DataArray>
        <DataArray type="Float64" Name="v">
          0.00000000e+00 -3.93362974e+00 -3.20824531e+00 -2.00888776e+00 0.00000000e+00 -1.77194297e+00 -1.53278515e+00 -9.27261027e-01 0.00000000e+00 -5.72283288e-01 -5.34203442e-01 -3.09167350e-01 0.00000000e+00 0.00000000e+00 0.00000000e+00 0.00000000e+00 
        </DataArray>
        <DataArray type="Float64" Name="p">
          -1.27869897e+03 -1.25657272e+03 -1.23444648e+03 -1.21232023e+03 -1.28607947e+03 -1.26332458e+03 -1.24056969e+03 -1.21781480e+03 -1.29345998e+03 -1.27007645e+03 -1.24669291e+03 -1.22330937e+03 -1.30084049e+03 -1.27682831e+03 -1.25281613e+03 -1.22880394e+03 
        </DataArray>
      </PointData>
    </Piece>
    <Piece NumberOfPoints="16" NumberOfCells="9">
      <Points>
        <DataArray type="Float64" NumberOfComponents="3" format="ascii">
          6.00000000e+00 0.00000000e+00 0.00000000e+00 
7.00000000e+00 0.00000000e+00 0.00000000e+00 
8.00000000e+00 0.00000000e+00 0.00000000e+00 
9.00000000e+00 0.00000000e+00 0.00000000e+00 
6.00000000e+00 3.33333343e-01 0.00000000e+00 
7.00000000e+00 3.33333343e-01 0.00000000e+00 
8.00000000e+00 3.33333343e-01 0.00000000e+00 
9.00000000e+00 3.33333343e-01 0.00000000e+00 
6.00000000e+00 6.66666687e-01 0.00000000e+00 
7.00000000e+00 6.66666687e-01 0.00000000e+00 
8.00000000e+00 6.66666687e-01 0.00000000e+00 
9.00000000e+00 6.66666687e-01 0.00000000e+00 
6.00000000e+00 1.00000000e+00 0.00000000e+00 
7.00000000e+00 1.00000000e+00 0.00000000e+00 
8.00000000e+00 1.00000000e+00 0.00000000e+00 
9.00000000e+00 1.00000000e+00 0.00000000e+00 

        </DataArray>
      </Points>
      <Cells>
        <DataArray type="Int32" Name="connectivity" format="ascii">
0 1 5 4
4 5 9 8
8 9 13 12
1 2 6 5
5 6 10 9
9 10 14 13
2 3 7 6
6 7 11 10
10 11 15 14

        </DataArray>
        <DataArray type="Int32" Name="offsets" format="ascii">
4 8 12 16 20 24 28 32 36 
        </DataArray>
        <DataArray type="UInt8" Name="types" format="ascii">
9 9 9 9 9 9 9 9 9 
        </DataArray>
      </Cells>
      <PointData>
        <DataArray type="Float64" Name="u">