<?xml version="1.0"?>
<VTKFile type="UnstructuredGrid" version="0.1" byte_order="LittleEndian">
  <UnstructuredGrid>
    <Piece NumberOfPoints="16" NumberOfCells="9">
      <Points>
        <DataArray type="Float64" NumberOfComponents="3" format="ascii">
          0.00000000e+00 3.00000000e+00 0.00000000e+00 
1.00000000e+00 3.00000000e+00 0.00000000e+00 
2.00000000e+00 3.00000000e+00 0.00000000e+00 
3.00000000e+00 3.00000000e+00 0.00000000e+00 
0.00000000e+00 3.33333325e+00 0.00000000e+00 
1.00000000e+00 3.33333325e+00 0.00000000e+00 
2.00000000e+00 3.33333325e+00 0.00000000e+00 
3.00000000e+00 3.33333325e+00 0.00000000e+00 
0.00000000e+00 3.66666675e+00 0.00000000e+00 
1.00000000e+00 3.66666675e+00 0.00000000e+00 
2.00000000e+00 3.66666675e+00 0.00000000e+00 
3.00000000e+00 3.66666675e+00 0.00000000e+00 
0.00000000e+00 4.00000000e+00 0.00000000e+00 
1.00000000e+00 4.00000000e+00 0.00000000e+00 
2.00000000e+00 4.00000000e+00 0.00000000e+00 
3.00000000e+00 4.00000000e+00 0.00000000e+00 

        </DataArray>
      </Points>
      <Cells>
        <DataArray type="Int32" Name="connectivity" format="ascii">
0 1 5 4
4 5 9 8
8 9 13 12
1 2 6 5
5 6 10 9
9 10 14 13
2 3 7 6
6 7 11 10
10 11 15 14

        </DataArray>
        <DataArray type="Int32" Name="offsets" format="ascii">
4 8 12 16 20 24 28 32 36 
        </DataArray>
        <DataArray type="UInt8" Name="types" format="ascii">
9 9 9 9 9 9 9 9 9 
        </DataArray>
      </Cells>
      <PointData>
        <DataArray type="Float64" Name="u">
          0.00000000e+00 0.00000000e+00 0.00000000e+00 0.00000000e+00 8.88888889e+01 9.46170615e+01 9.21599981e+01 1.05293397e+02 1.55555556e+02 1.59907120e+02 1.58891649e+02 1.66700056e+02 2.00000000e+02 2.02469749e+02 2.02238820e+02 2.07400259e+02 
        </DataArray>
        <DataArray type="Float64" Name="v">
          0.00000000e+00 0.00000000e+00 0.00000000e+00 0.00000000e+00 0.00000000e+00 -1.61743296e+00 -2.35466363e+00 -4.40434476e+00 0.00000000e+00 -1.08551619e+00 -2.61119690e+00 -4.40105738e+00 0.00000000e+00 -2.81837106e+00 -4.79650160e+00 -7.17114380e+00 
        </DataArray>
        <DataArray type="Float64" Name="p">
          -1.94465696e+03 -2.62262024e+03 -3.30058352e+03 -3.97854680e+03 -1.90260996e+03 -2.57033992e+03 -3.23806989e+03 -3.90579986e+03 -1.86056295e+03 -2.51805960e+03 -3.17555626e+03 -3.83305291e+03 -1.81851595e+03 -2.46577929e+03 -3.11304262e+03 -3.76030596e+03 
        </DataArray>
      </PointData>
    </Piece>
    <Piece NumberOfPoints="16" NumberOfCells="9">
      <Points>
        <DataArray type="Float64" NumberOfComponents="3" format="ascii">
          0.00000000e+00 4.00000000e+00 0.00000000e+00 
1.00000000e+00 4.00000000e+00 0.00000000e+00 
2.00000000e+00 4.00000000e+00 0.00000000e+00 
3.00000000e+00 4.00000000e+00 0.00000000e+00 
0.00000000e+00 4.33333349e+00 0.00000000e+00 
1.00000000e+00 4.33333349e+00 0.00000000e+00 
2.00000000e+00 4.33333349e+00 0.00000000e+00 
3.00000000e+00 4.33333349e+00 0.00000000e+00 
0.00000000e+00 4.66666651e+00 0.00000000e+00 
1.00000000e+00 4.66666651e+00 0.00000000e+00 
2.00000000e+00 4.66666651e+00 0.00000000e+00 
3.00000000e+00 4.66666651e+00 0.00000000e+00 
0.00000000e+00 5.00000000e+00 0.00000000e+00 
1.00000000e+00 5.00000000e+00 0.00000000e+00 
2.00000000e+00 5.00000000e+00 0.00000000e+00 
3.00000000e+00 5.00000000e+00 0.00000000e+00 

        </DataArray>
      </Points>
      <Cells>
        <DataArray type="Int32" Name="connectivity" format="ascii">
0 1 5 4
4 5 9 8
8 9 13 12
1 2 6 5
5 6 10 9
9 10 14 13
2 3 7 6
6 7 11 10
10 11 15 14

        </DataArray>
        <DataArray type="Int32" Name="offsets" format="ascii">
4 8 12 16 20 24 28 32 36 
        </DataArray>
        <DataArray type="UInt8" Name="types" format="ascii">
9 9 9 9 9 9 9 9 9 
        </DataArray>
      </Cells>
      <PointData>
        <DataArray type="Float64" Name="u">
          2.00000000e+02 2.02469749e+02 2.02238820e+02 2.07400259e+02 2.22222222e+02 2.23085844e+02 2.22921869e+02 2.24246421e+02 2.22222222e+02 2.21292531e+02 2.20977090e+02 2.19178934e+02 2.00000000e+02 1.97552732e+02 1.97346497e+02 1.92115834e+02 
        </DataArray>
        <DataArray type="Float64" Name="v">
          0.00000000e+00 -2.81837106e+00 -4.79650160e+00 -7.17114380e+00 0.00000000e+00 -3.22452088e+00 -5.65290212e+00 -7.36790453e+00 0.00000000e+00 -3.23527682e+00 -5.59218821e+00 -7.40414395e+00 0.00000000e+00 -2.68316188e+00 -4.80598339e+00 -6.36793522e+00 
        </DataArray>
        <DataArray type="Float64" Name="p">
          -1.79282572e+03 -2.43717249e+03 -3.08151926e+03 -3.72586602e+03 -1.53606554e+03 -2.22885014e+03 -2.92163473e+03 -3.61441933e+03 -1.27930536e+03 -2.02052778e+03 -2.76175021e+03 -3.50297263e+03 -1.02254518e+03 -1.81220543e+03 -2.60186568e+03 -3.39152593e+03 
        </DataArray>
      </PointData>
    </Piece>
    <Piece NumberOfPoints="16" NumberOfCells="9">
      <Points>
        <DataArray type="Float64" NumberOfComponents="3" format="ascii">
          0.00000000e+00 5.00000000e+00 0.00000000e+00 
1.00000000e+00 5.00000000e+00 0.00000000e+00 
2.00000000e+00 5.00000000e+00 0.00000000e+00 
3.00000000e+00 5.00000000e+00 0.00000000e+00 
0.00000000e+00 5.33333349e+00 0.00000000e+00 
1.00000000e+00 5.33333349e+00 0.00000000e+00 
2.00000000e+00 5.33333349e+00 0.00000000e+00 
3.00000000e+00 5.33333349e+00 0.00000000e+00 
0.00000000e+00 5.66666651e+00 0.00000000e+00 
1.00000000e+00 5.66666651e+00 0.00000000e+00 
2.00000000e+00 5.66666651e+00 0.00000000e+00 
3.00000000e+00 5.66666651e+00 0.00000000e+00 
0.00000000e+00 6.00000000e+00 0.00000000e+00 
1.00000000e+00 6.00000000e+00 0.00000000e+00 
2.00000000e+00 6.00000000e+00 0.00000000e+00 
3.00000000e+00 6.00000000e+00 0.00000000e+00 

        </DataArray>
      </Points>
      <Cells>
        <DataArray type="Int32" Name="connectivity" format="ascii">
0 1 5 4
4 5 9 8
8 9 13 12
1 2 6 5
5 6 10 9
9 10 14 13
2 3 7 6
6 7 11 10
10 11 15 14

        </DataArray>
        <DataArray type="Int32" Name="offsets" format="ascii">
4 8 12 16 20 24 28 32 36 
        </DataArray>
        <DataArray type="UInt8" Name="types" format="ascii">
9 9 9 9 9 9 9 9 9 
        </DataArray>
      </Cells>
      <PointData>
        <DataArray type="Float64" Name="u">
          2.00000000e+02 1.97552732e+02 1.97346497e+02 1.92115834e+02 1.55555556e+02 1.51695996e+02 1.51925382e+02 1.44215243e+02 8.88888889e+01 8.42350833e+01 8.52185113e+01 7.40218853e+01 0.00000000e+00 0.00000000e+00 0.00000000e+00 0.00000000e+00 
        </DataArray>
        <DataArray type="Float64" Name="v">
          0.00000000e+00 -2.68316188e+00 -4.80598339e+00 -6.36793522e+00 0.00000000e+00 -1.07356829e+00 -2.47622288e+00 -3.99530447e+00 0.00000000e+00 -1.40825768e+00 -2.46716859e+00 -2.81611333e+00 0.00000000e+00 0.00000000e+00 0.00000000e+00 0.00000000e+00 
        </DataArray>
        <DataArray type="Float64" Name="p">
          -1.00384931e+03 -1.78274953e+03 -2.56164975e+03 -3.34054996e+03 -9.53576412e+02 -1.73149633e+03 -2.50941625e+03 -3.28733617e+03 -9.03303515e+02 -1.68024314e+03 -2.45718276e+03 -3.23412238e+03 -8.53030618e+02 -1.62898994e+03 -2.40494926e+03 -3.18090859e+03 
        </DataArray>
      </PointData>
    </Piece>
    <Piece NumberOfPoints="16" NumberOfCells="9">
      <Points>
        <DataArray type="Float64" NumberOfComponents="3" format="ascii">
          3.00000000e+00 0.00000000e+00 0.00000000e+00 
4.00000000e+00 0.00000000e+00 0.00000000e+00 
5.00000000e+00 0.00000000e+00 0.00000000e+00 
6.00000000e+00 0.00000000e+00 0.00000000e+00 
3.00000000e+00 3.33333343e-01 0.00000000e+00 
4.00000000e+00 3.33333343e-01 0.00000000e+00 
5.00000000e+00 3.33333343e-01 0.00000000e+00 
6.00000000e+00 3.33333343e-01 0.00000000e+00 
3.00000000e+00 6.66666687e-01 0.00000000e+00 
4.00000000e+00 6.66666687e-01 0.00000000e+00 
5.00000000e+00 6.66666687e-01 0.00000000e+00 
6.00000000e+00 6.66666687e-01 0.00000000e+00 
3.00000000e+00 1.00000000e+00 0.00000000e+00 
4.00000000e+00 1.00000000e+00 0.00000000e+00 
5.00000000e+00 1.00000000e+00 0.00000000e+00 
6.00000000e+00 1.00000000e+00 0.00000000e+00 

        </DataArray>
      </Points>
      <Cells>
        <DataArray type="Int32" Name="connectivity" format="ascii">
0 1 5 4
4 5 9 8
8 9 13 12
1 2 6 5
5 6 10 9
9 10 14 13
2 3 7 6
6 7 11 10
10 11 15 14

        </DataArray>
        <DataArray type="Int32" Name="offsets" format="ascii">
4 8 12 16 20 24 28 32 36 
        </DataArray>
        <DataArray type="UInt8" Name="types" format="ascii">
9 9 9 9 9 9 9 9 9 
        </DataArray>
      </Cells>
      <PointData>
        <DataArray type="Float64" Name="u">
          0.00000000e+00 0.00000000e+00 0.00000000e+00 0.00000000e+00 0.00000000e+00 -2.54376000e+00 -4.92459602e+00 -7.88725010e+00 0.00000000e+00 -4.71095922e+00 -9.11520992e+00 -1.54325754e+01 0.00000000e+00 -6.25411580e+00 -1.19247546e+01 -1.95748352e+01 
        </DataArray>
        <DataArray type="Float64" Name="v">
          0.00000000e+00 0.00000000e+00 0.00000000e+00 0.00000000e+00 0.00000000e+00 6.84593300e-01 5.71883303e-01 4.31557572e-01 0.00000000e+00 2.06365150e+00 1.86247787e+00 1.44918856e+00 0.00000000e+00 4.56095467e+00 4.43594990e+00 2.85405686e+00 
        </DataArray>
        <DataArray type="Float64" Name="p">
          -4.64309681e+03 -4.63342908e+03 -4.62376136e+03 -4.61409363e+03 -4.63940209e+03 -4.62820116e+03 -4.61700022e+03 -4.60579929e+03 -4.63570737e+03 -4.62297323e+03 -4.61023909e+03 -4.59750495e+03 -4.63201265e+03 -4.61774530e+03 -4.60347796e+03 -4.58921061e+03 
        </DataArray>
      </PointData>
    </Piece>
    <Piece NumberOfPoints="16" NumberOfCells="9">
      <Points>
        <DataArray type="Float64" NumberOfComponents="3" format="ascii">
          3.00000000e+00 1.00000000e+00 0.00000000e+00 
4.00000000e+00 1.00000000e+00 0.00000000e+00 
5.00000000e+00 1.00000000e+00 0.00000000e+00 
6.00000000e+00 1.00000000e+00 0.00000000e+00 
3.00000000e+00 1.33333337e+00 0.00000000e+00 
4.00000000e+00 1.33333337e+00 0.00000000e+00 
5.00000000e+00 1.33333337e+00 0.00000000e+00 
6.00000000e+00 1.33333337e+00 0.00000000e+00 
3.00000000e+00 1.66666663e+00 0.00000000e+00 
4.00000000e+00 1.66666663e+00 0.00000000e+00 
5.00000000e+00 1.66666663e+00 0.00000000e+00 
6.00000000e+00 1.66666663e+00 0.00000000e+00 
3.00000000e+00 2.00000000e+00 0.00000000e+00 
4.00000000e+00 2.00000000e+00 0.00000000e+00 
5.00000000e+00 2.00000000e+00 0.00000000e+00 
6.00000000e+00 2.00000000e+00 0.00000000e+00 

        </DataArray>
      </Points>
      <Cells>
        <DataArray type="Int32" Name="connectivity" format="ascii">
0 1 5 4
4 5 9 8
8 9 13 12
1 2 6 5
5 6 10 9
9 10 14 13
2 3 7 6
6 7 11 10
10 11 15 14

        </DataArray>
        <DataArray type="Int32" Name="offsets" format="ascii">
4 8 12 16 20 24 28 32 36 
        </DataArray>
        <DataArray type="UInt8" Name="types" format="ascii">
9 9 9 9 9 9 9 9 9 
        </DataArray>
      </Cells>
      <PointData>
        <DataArray type="Float64" Name="u">
          0.00000000e+00 -6.25411580e+00 -1.19247546e+01 -1.95748352e+01 0.00000000e+00 -6.98707356e+00 -1.25026804e+01 -1.89420080e+01 0.00000000e+00 -6.75566474e+00 -1.02247378e+01 -1.29928705e+01 0.00000000e+00 -5.14673129e+00 -4.30967801e+00 -9.07311119e-01 
        </DataArray>
        <DataArray type="Float64" Name="v">
          0.00000000e+00 4.56095467e+00 4.43594990e+00 2.85405686e+00 0.00000000e+00 7.64394012e+00 6.99805645e+00 4.47075963e+00 0.00000000e+00 1.00663849e+01 8.67079179e+00 4.68706256e+00 0.00000000e+00 1.24784330e+01 9.29966576e+00 3.27273495e+00 
        </DataArray>
        <DataArray type="Float64" Name="p">
          -4.62595716e+03 -4.61607932e+03 -4.60620149e+03 -4.59632365e+03 -4.64900655e+03 -4.64548627e+03 -4.64196598e+03 -4.63844570e+03 -4.67205594e+03 -4.67489321e+03 -4.67773048e+03 -4.68056775e+03 -4.69510533e+03 -4.70430015e+03 -4.71349498e+03 -4.72268980e+03 
        </DataArray>
      </PointData>
    </Piece>
    <Piece NumberOfPoints="16" NumberOfCells="9">
      <Points>
        <DataArray type="Float64" NumberOfComponents="3" format="ascii">
          3.00000000e+00 2.00000000e+00 0.00000000e+00 
4.00000000e+00 2.00000000e+00 0.00000000e+00 
5.00000000e+00 2.00000000e+00 0.00000000e+00 
6.00000000e+00 2.00000000e+00 0.00000000e+00 
3.00000000e+00 2.33333325e+00 0.00000000e+00 
4.00000000e+00 2.33333325e+00 0.00000000e+00 
5.00000000e+00 2.33333325e+00 0.00000000e+00 
6.00000000e+00 2.33333325e+00 0.00000000e+00 
3.00000000e+00 2.66666675e+00 0.00000000e+00 
4.00000000e+00 2.66666675e+00 0.00000000e+00 
5.00000000e+00 2.66666675e+00 0.00000000e+00 
6.00000000e+00 2.66666675e+00 0.00000000e+00 
3.00000000e+00 3.00000000e+00 0.00000000e+00 
4.00000000e+00 3.00000000e+00 0.00000000e+00 
5.00000000e+00 3.00000000e+00 0.00000000e+00 
6.00000000e+00 3.00000000e+00 0.00000000e+00 

        </DataArray>
      </Points>
      <Cells>
        <DataArray type="Int32" Name="connectivity" format="ascii">
0 1 5 4
4 5 9 8
8 9 13 12
1 2 6 5
5 6 10 9
9 10 14 13
2 3 7 6
6 7 11 10
10 11 15 14

        </DataArray>
        <DataArray type="Int32" Name="offsets" format="ascii">
4 8 12 16 20 24 28 32 36 
        </DataArray>
        <DataArray type="UInt8" Name="types" format="ascii">
9 9 9 9 9 9 9 9 9 
        </DataArray>
      </Cells>
      <PointData>
        <DataArray type="Float64" Name="u">
          0.00000000e+00 -5.14673129e+00 -4.30967801e+00 -9.07311119e-01 0.00000000e+00 -9.23330916e-01 5.80190744e+00 2.04093934e+01 0.00000000e+00 1.25347648e+01 2.66529427e+01 5.15341354e+01 0.00000000e+00 5.46870715e+01 7.13127518e+01 9.79911636e+01 
        </DataArray>
        <DataArray type="Float64" Name="v">
          0.00000000e+00 1.24784330e+01 9.29966576e+00 3.27273495e+00 0.00000000e+00 1.35769990e+01 6.19565721e+00 -2.34740043e+00 0.00000000e+00 1.04048902e+01 2.89750806e+00 -6.83514282e+00 0.00000000e+00 -1.03269551e+00 -6.70693150e+00 -1.24789007e+01 
        </DataArray>
        <DataArray type="Float64" Name="p">
          -4.67205198e+03 -4.71289560e+03 -4.75373923e+03 -4.79458286e+03 -4.79321603e+03 -4.75823847e+03 -4.72326090e+03 -4.68828334e+03 -4.91438009e+03 -4.80358133e+03 -4.69278257e+03 -4.58198381e+03 -5.03554414e+03 -4.84892419e+03 -4.66230424e+03 -4.47568429e+03 
        </DataArray>
      </PointData>
    </Piece>
    <Piece NumberOfPoints="16" NumberOfCells="9">
      <Points>
        <DataArray type="Float64" NumberOfComponents="3" format="ascii">
          3.00000000e+00 3.00000000e+00 0.00000000e+00 
4.00000000e+00 3.00000000e+00 0.00000000e+00 
5.00000000e+00 3.00000000e+00 0.00000000e+00 
6.00000000e+00 3.00000000e+00 0.00000000e+00 
3.00000000e+00 3.33333325e+00 0.00000000e+00 
4.00000000e+00 3.33333325e+00 0.00000000e+00 
5.00000000e+00 3.33333325e+00 0.00000000e+00 
6.00000000e+00 3.33333325e+00 0.00000000e+00 
3.00000000e+00 3.66666675e+00 0.00000000e+00 
4.00000000e+00 3.66666675e+00 0.00000000e+00 
5.00000000e+00 3.66666675e+00 0.00000000e+00 
6.00000000e+00 3.66666675e+00 0.00000000e+00 
3.00000000e+00 4.00000000e+00 0.00000000e+00 
4.00000000e+00 4.00000000e+00 0.00000000e+00 
5.00000000e+00 4.00000000e+00 0.00000000e+00 
6.00000000e+00 4.00000000e+00 0.00000000e+00 

        </DataArray>
      </Points>
      <Cells>
        <DataArray type="Int32" Name="connectivity" format="ascii">
0 1 5 4
4 5 9 8
8 9 13 12
1 2 6 5
5 6 10 9
9 10 14 13
2 3 7 6
6 7 11 10
10 11 15 14

        </DataArray>
        <DataArray type="Int32" Name="offsets" format="ascii">
4 8 12 16 20 24 28 32 36 
        </DataArray>
        <DataArray type="UInt8" Name="types" format="ascii">
9 9 9 9 9 9 9 9 9 
        </DataArray>
      </Cells>
      <PointData>
        <DataArray type="Float64" Name="u">
          0.00000000e+00 5.46870715e+01 7.13127518e+01 9.79911636e+01 1.05293397e+02 1.14901422e+02 1.30057588e+02 1.45434540e+02 1.66700056e+02 1.69942849e+02 1.78015858e+02 1.85254288e+02 2.07400259e+02 2.05192540e+02 2.09495236e+02 2.09049875e+02 
        </DataArray>
        <DataArray type="Float64" Name="v">
          0.00000000e+00 -1.03269551e+00 -6.70693150e+00 -1.24789007e+01 -4.40434476e+00 -1.24496546e+01 -1.57314635e+01 -1.69659512e+01 -4.40105738e+00 -1.16822808e+01 -1.60869546e+01 -1.83518547e+01 -7.17114380e+00 -1.38724741e+01 -1.86101074e+01 -2.29878617e+01 
        </DataArray>
        <DataArray type="Float64" Name="p">
          -5.17731164e+03 -4.93262808e+03 -4.68794452e+03 -4.44326096e+03 -4.74528002e+03 -4.63852016e+03 -4.53176029e+03 -4.42500043e+03 -4.31324840e+03 -4.34441223e+03 -4.37557606e+03 -4.40673990e+03 -3.88121677e+03 -4.05030431e+03 -4.21939184e+03 -4.38847937e+03 
        </DataArray>
      </PointData>
    </Piece>
    <Piece NumberOfPoints="16" NumberOfCells="9">
      <Points>
        <DataArray type="Float64" NumberOfComponents="3" format="ascii">
          3.00000000e+00 4.00000000e+00 0.00000000e+00 
4.00000000e+00 4.00000000e+00 0.00000000e+00 
5.00000000e+00 4.00000000e+00 0.00000000e+00 
6.00000000e+00 4.00000000e+00 0.00000000e+00 
3.00000000e+00 4.33333349e+00 0.00000000e+00 
4.00000000e+00 4.33333349e+00 0.00000000e+00 
5.00000000e+00 4.33333349e+00 0.00000000e+00 
6.00000000e+00 4.33333349e+00 0.00000000e+00 
3.00000000e+00 4.66666651e+00 0.00000000e+00 
4.00000000e+00 4.66666651e+00 0.00000000e+00 
5.00000000e+00 4.66666651e+00 0.00000000e+00 
6.00000000e+00 4.66666651e+00 0.00000000e+00 
3.00000000e+00 5.00000000e+00 0.00000000e+00 
4.00000000e+00 5.00000000e+00 0.00000000e+00 
5.00000000e+00 5.00000000e+00 0.00000000e+00 
6.00000000e+00 5.00000000e+00 0.00000000e+00 

        </DataArray>
      </Points>
      <Cells>
        <DataArray type="Int32" Name="connectivity" format="ascii">
0 1 5 4
4 5 9 8
8 9 13 12
1 2 6 5
5 6 10 9
9 10 14 13
2 3 7 6
6 7 11 10
10 11 15 14

        </DataArray>
        <DataArray type="Int32" Name="offsets" format="ascii">
4 8 12 16 20 24 28 32 36 
        </DataArray>
        <DataArray type="UInt8" Name="types" format="ascii">
9 9 9 9 9 9 9 9 9 
        </DataArray>
      </Cells>
      <PointData>
        <DataArray type="Float64" Name="u">
          2.07400259e+02 2.05192540e+02 2.09495236e+02 2.09049875e+02 2.24246421e+02 2.20221857e+02 2.18768337e+02 2.12802951e+02 2.19178934e+02 2.12057994e+02 2.06689803e+02 1.95230364e+02 1.92115834e+02 1.83571002e+02 1.75301942e+02 1.60557749e+02 
        </DataArray>
        <DataArray type="Float64" Name="v">
          -7.17114380e+00 -1.38724741e+01 -1.86101074e+01 -2.29878617e+01 -7.36790453e+00 -1.20648199e+01 -1.73247161e+01 -2.24067378e+01 -7.40414395e+00 -1.20039649e+01 -1.61868217e+01 -2.07595455e+01 -6.36793522e+00 -7.98156544e+00 -1.18483399e+01 -1.63875678e+01 
        </DataArray>
        <DataArray type="Float64" Name="p">
          -3.78756944e+03 -3.96318795e+03 -4.13880646e+03 -4.31442496e+03 -3.44958701e+03 -3.60590082e+03 -3.76221464e+03 -3.91852846e+03 -3.11160458e+03 -3.24861370e+03 -3.38562283e+03 -3.52263195e+03 -2.77362214e+03 -2.89132658e+03 -3.00903101e+03 -3.12673545e+03 
        </DataArray>
      </PointData>
    </Piece>
    <Piece NumberOfPoints="16" NumberOfCells="9">
      <Points>
        <DataArray type="Float64" NumberOfComponents="3" format="ascii">
          3.00000000e+00 5.00000000e+00 0.00000000e+00 
4.00000000e+00 5.00000000e+00 0.00000000e+00 
5.00000000e+00 5.00000000e+00 0.00000000e+00 
6.00000000e+00 5.00000000e+00 0.00000000e+00 
3.00000000e+00 5.33333349e+00 0.00000000e+00 
4.00000000e+00 5.33333349e+00 0.00000000e+00 
5.00000000e+00 5.33333349e+00 0.00000000e+00 
6.00000000e+00 5.33333349e+00 0.00000000e+00 
3.00000000e+00 5.66666651e+00 0.00000000e+00 
4.00000000e+00 5.66666651e+00 0.00000000e+00 
5.00000000e+00 5.66666651e+00 0.00000000e+00 
6.00000000e+00 5.66666651e+00 0.00000000e+00 
3.00000000e+00 6.00000000e+00 0.00000000e+00 
4.00000000e+00 6.00000000e+00 0.00000000e+00 
5.00000000e+00 6.00000000e+00 0.00000000e+00 
6.00000000e+00 6.00000000e+00 0.00000000e+00 

        </DataArray>
      </Points>
      <Cells>
        <DataArray type="Int32" Name="connectivity" format="ascii">
0 1 5 4
4 5 9 8
8 9 13 12
1 2 6 5
5 6 10 9
9 10 14 13
2 3 7 6
6 7 11 10
10 11 15 14

        </DataArray>
        <DataArray type="Int32" Name="offsets" format="ascii">
4 8 12 16 20 24 28 32 36 
        </DataArray>
        <DataArray type="UInt8" Name="types" format="ascii">
9 9 9 9 9 9 9 9 9 
        </DataArray>
      </Cells>
      <PointData>
        <DataArray type="Float64" Name="u">
          1.92115834e+02 1.83571002e+02 1.75301942e+02 1.60557749e+02 1.44215243e+02 1.34362645e+02 1.25475379e+02 1.11288676e+02 7.40218853e+01 7.34745175e+01 6.85238926e+01 6.22012000e+01 0.00000000e+00 2.83765478e+01 2.66596384e+01 3.22650746e+01 
        </DataArray>
        <DataArray type="Float64" Name="v">
          -6.36793522e+00 -7.98156544e+00 -1.18483399e+01 -1.63875678e+01 -3.99530447e+00 -3.38407938e+00 -5.65915027e+00 -1.01817416e+01 -2.81611333e+00 -3.31319055e+00 -6.49566189e+00 -8.74311464e+00 0.00000000e+00 -6.55465959e+00 -4.92363770e+00 -3.29873758e+00 
        </DataArray>
        <DataArray type="Float64" Name="p">
          -2.80819347e+03 -2.86705110e+03 -2.92590873e+03 -2.98476636e+03 -2.87338470e+03 -2.85611207e+03 -2.83883943e+03 -2.82156679e+03 -2.93857594e+03 -2.84517304e+03 -2.75177013e+03 -2.65836722e+03 -3.00376718e+03 -2.83423400e+03 -2.66470083e+03 -2.49516765e+03 
        </DataArray>
      </PointData>
    </Piece>
    <Piece NumberOfPoints="16" NumberOfCells="9">
      <Points>
        <DataArray type="Float64" NumberOfComponents="3" format="ascii">
          3.00000000e+00 6.00000000e+00 0.00000000e+00 
4.00000000e+00 6.00000000e+00 0.00000000e+00 
5.00000000e+00 6.00000000e+00 0.00000000e+00 
6.00000000e+00 6.00000000e+00 0.00000000e+00 
3.00000000e+00 6.33333349e+00 0.00000000e+00 
4.00000000e+00 6.33333349e+00 0.00000000e+00 
5.00000000e+00 6.33333349e+00 0.00000000e+00 
6.00000000e+00 6.33333349e+00 0.00000000e+00 
3.00000000e+00 6.66666651e+00 0.00000000e+00 
4.00000000e+00 6.66666651e+00 0.00000000e+00 
5.00000000e+00 6.66666651e+00 0.00000000e+00 
6.00000000e+00 6.66666651e+00 0.00000000e+00 
3.00000000e+00 7.00000000e+00 0.00000000e+00 
4.00000000e+00 7.00000000e+00 0.00000000e+00 
5.00000000e+00 7.00000000e+00 0.00000000e+00 
6.00000000e+00 7.00000000e+00 0.00000000e+00 

        </DataArray>
      </Points>
      <Cells>
        <DataArray type="Int32" Name="connectivity" format="ascii">
0 1 5 4
4 5 9 8
8 9 13 12
1 2 6 5
5 6 10 9
9 10 14 13
2 3 7 6
6 7 11 10
10 11 15 14

        </DataArray>
        <DataArray type="Int32" Name="offsets" format="ascii">
4 8 12 16 20 24 28 32 36 
        </DataArray>
        <DataArray type="UInt8" Name="types" format="ascii">
9 9 9 9 9 9 9 9 9 
        </DataArray>
      </Cells>
      <PointData>
        <DataArray type="Float64" Name="u">
          0.00000000e+00 2.83765478e+01 2.66596384e+01 3.22650746e+01 0.00000000e+00 4.29164778e+00 6.05597579e+00 1.04948214e+01 0.00000000e+00 -3.13346995e+00 -3.21705779e+00 -2.60106759e+00 0.00000000e+00 -5.36353330e+00 -7.48895822e+00 -1.01338977e+01 
        </DataArray>
        <DataArray type="Float64" Name="v">
          0.00000000e+00 -6.55465959e+00 -4.92363770e+00 -3.29873758e+00 0.00000000e+00 -1.11105532e+01 -6.95586191e+00 -2.95160231e+00 0.00000000e+00 -1.14934035e+01 -6.69055234e+00 -3.33099206e+00 0.00000000e+00 -9.69983846e+00 -6.69492900e+00 -3.82013990e+00 
        </DataArray>
        <DataArray type="Float64" Name="p">
          -2.98982703e+03 -2.87493709e+03 -2.76004715e+03 -2.64515721e+03 -2.90973225e+03 -2.83170899e+03 -2.75368574e+03 -2.67566248e+03 -2.82963746e+03 -2.78848089e+03 -2.74732433e+03 -2.70616776e+03 -2.74954268e+03 -2.74525280e+03 -2.74096291e+03 -2.73667303e+03 
        </DataArray>
      </PointData>
    </Piece>
    <Piece NumberOfPoints="16" NumberOfCells="9">
      <Points>
        <DataArray type="Float64" NumberOfComponents="3" format="ascii">
          3.00000000e+00 7.00000000e+00 0.00000000e+00 
4.00000000e+00 7.00000000e+00 0.00000000e+00 
5.00000000e+00 7.00000000e+00 0.00000000e+00 
6.00000000e+00 7.00000000e+00 0.00000000e+00 
3.00000000e+00 7.33333349e+00 0.00000000e+00 
4.00000000e+00 7.33333349e+00 0.00000000e+00 
5.00000000e+00 7.33333349e+00 0.00000000e+00 
6.00000000e+00 7.33333349e+00 0.00000000e+00 
3.00000000e+00 7.66666651e+00 0.00000000e+00 
4.00000000e+00 7.66666651e+00 0.00000000e+00 
5.00000000e+00 7.66666651e+00 0.00000000e+00 
6.00000000e+00 7.66666651e+00 0.00000000e+00 
3.00000000e+00 8.00000000e+00 0.00000000e+00 
4.00000000e+00 8.00000000e+00 0.00000000e+00 
5.00000000e+00 8.00000000e+00 0.00000000e+00 
6.00000000e+00 8.00000000e+00 0.00000000e+00 

        </DataArray>
      </Points>
      <Cells>
        <DataArray type="Int32" Name="connectivity" format="ascii">
0 1 5 4
4 5 9 8
8 9 13 12
1 2 6 5
5 6 10 9
9 10 14 13
2 3 7 6
6 7 11 10
10 11 15 14

        </DataArray>
        <DataArray type="Int32" Name="offsets" format="ascii">
4 8 12 16 20 24 28 32 36 
        </DataArray>
        <DataArray type="UInt8" Name="types" format="ascii">
9 9 9 9 9 9 9 9 9 
        </DataArray>
      </Cells>
      <PointData>
        <DataArray type="Float64" Name="u">
          0.00000000e+00 -5.36353330e+00 -7.48895822e+00 -1.01338977e+01 0.00000000e+00 -5.82314122e+00 -9.30068107e+00 -1.32621762e+01 0.00000000e+00 -5.41062496e+00 -9.28701819e+00 -1.37288827e+01 0.00000000e+00 -4.50534892e+00 -8.01710353e+00 -1.22366553e+01 
        </DataArray>
        <DataArray type="Float64" Name="v">
          0.00000000e+00 -9.69983846e+00 -6.69492900e+00 -3.82013990e+00 0.00000000e+00 -7.31197355e+00 -5.40404076e+00 -3.35741990e+00 0.00000000e+00 -5.35055550e+00 -4.13296568e+00 -2.66365666e+00 0.00000000e+00 -3.08157856e+00 -2.53826986e+00 -1.69698706e+00 
        </DataArray>
        <DataArray type="Float64" Name="p">
          -2.75517671e+03 -2.73950044e+03 -2.72382416e+03 -2.70814789e+03 -2.73375562e+03 -2.72105770e+03 -2.70835978e+03 -2.69566186e+03 -2.71233454e+03 -2.70261497e+03 -2.69289540e+03 -2.68317583e+03 -2.69091345e+03 -2.68417223e+03 -2.67743101e+03 -2.67068979e+03 
        </DataArray>
      </PointData>
    </Piece>
    <Piece NumberOfPoints="16" NumberOfCells="9">
      <Points>
        <DataArray type="Float64" NumberOfComponents="3" format="ascii">
          3.00000000e+00 8.00000000e+00 0.00000000e+00 
4.00000000e+00 8.00000000e+00 0.00000000e+00 
5.00000000e+00 8.00000000e+00 0.00000000e+00 
6.00000000e+00 8.00000000e+00 0.00000000e+00 
3.00000000e+00 8.33333302e+00 0.00000000e+00 
4.00000000e+00 8.33333302e+00 0.00000000e+00 
5.00000000e+00 8.33333302e+00 0.00000000e+00 
6.00000000e+00 8.33333302e+00 0.00000000e+00 
3.00000000e+00 8.66666698e+00 0.00000000e+00 
4.00000000e+00 8.66666698e+00 0.00000000e+00 
5.00000000e+00 8.66666698e+00 0.00000000e+00 
6.00000000e+00 8.66666698e+00 0.00000000e+00 
3.00000000e+00 9.00000000e+00 0.00000000e+00 
4.00000000e+00 9.00000000e+00 0.00000000e+00 
5.00000000e+00 9.00000000e+00 0.00000000e+00 
6.00000000e+00 9.00000000e+00 0.00000000e+00 

        </DataArray>
      </Points>
      <Cells>
        <DataArray type="Int32" Name="connectivity" format="ascii">
0 1 5 4
4 5 9 8
8 9 13 12
1 2 6 5
5 6 10 9
9 10 14 13
2 3 7 6
6 7 11 10
10 11 15 14

        </DataArray>
        <DataArray type="Int32" Name="offsets" format="ascii">
4 8 12 16 20 24 28 32 36 
        </DataArray>
        <DataArray type="UInt8" Name="types" format="ascii">
9 9 9 9 9 9 9 9 9 
        </DataArray>
      </Cells>
      <PointData>
        <DataArray type="Float64" Name="u">
          0.00000000e+00 -4.50534892e+00 -8.01710353e+00 -1.22366553e+01 0.00000000e+00 -3.27799066e+00 -5.86759059e+00 -9.31407024e+00 0.00000000e+00 -1.77127898e+00 -3.11018592e+00 -5.16357700e+00 0.00000000e+00 0.00000000e+00 0.00000000e+00 0.00000000e+00 
        </DataArray>
        <DataArray type="Float64" Name="v">
          0.00000000e+00 -3.08157856e+00 -2.53826986e+00 -1.69698706e+00 0.00000000e+00 -1.36833739e+00 -1.19544748e+00 -7.77567715e-01 0.00000000e+00 -4.32260732e-01 -4.08368929e-01 -2.57083207e-01 0.00000000e+00 0.00000000e+00 0.00000000e+00 0.00000000e+00 
        </DataArray>
        <DataArray type="Float64" Name="p">
          -2.69543241e+03 -2.68721634e+03 -2.67900027e+03 -2.67078421e+03 -2.69968302e+03 -2.69115993e+03 -2.68263683e+03 -2.67411374e+03 -2.70393364e+03 -2.69510351e+03 -2.68627339e+03 -2.67744327e+03 -2.70818425e+03 -2.69904710e+03 -2.68990995e+03 -2.68077280e+03 
        </DataArray>
      </PointData>
    </Piece>
    <Piece NumberOfPoints="16" NumberOfCells="9">
      <Points>
        <DataArray type="Float64" NumberOfComponents="3" format="ascii">
          6.00000000e+00 0.00000000e+00 0.00000000e+00 
7.00000000e+00 0.00000000e+00 0.00000000e+00 
8.00000000e+00 0.00000000e+00 0.00000000e+00 
9.00000000e+00 0.00000000e+00 0.00000000e+00 
6.00000000e+00 3.33333343e-01 0.00000000e+00 
7.00000000e+00 3.33333343e-01 0.00000000e+00 
8.00000000e+00 3.33333343e-01 0.00000000e+00 
9.00000000e+00 3.33333343e-01 0.00000000e+00 
6.00000000e+00 6.66666687e-01 0.00000000e+00 
7.00000000e+00 6.66666687e-01 0.00000000e+00 
8.00000000e+00 6.66666687e-01 0.00000000e+00 
9.00000000e+00 6.66666687e-01 0.00000000e+00 
6.00000000e+00 1.00000000e+00 0.00000000e+00 
7.00000000e+00 1.00000000e+00 0.00000000e+00 
8.00000000e+00 1.00000000e+00 0.00000000e+00 
9.00000000e+00 1.00000000e+00 0.00000000e+00 

        </DataArray>
      </Points>
      <Cells>
        <DataArray type="Int32" Name="connectivity" format="ascii">
0 1 5 4
4 5 9 8
8 9 13 12
1 2 6 5
5 6 10 9
9 10 14 13
2 3 7 6
6 7 11 10
10 11 15 14

        </DataArray>
        <DataArray type="Int32" Name="offsets" format="ascii">
4 8 12 16 20 24 28 32 36 
        </DataArray>
        <DataArray type="UInt8" Name="types" format="ascii">
9 9 9 9 9 9 9 9 9 
        </DataArray>
      </Cells>
      <PointData>
        <DataArray type="Float64" Name="u">