<?xml version="1.0"?>
<VTKFile type="UnstructuredGrid" version="0.1" byte_order="LittleEndian">
  <UnstructuredGrid>
    <Piece NumberOfPoints="16" NumberOfCells="9">
      <Points>
        <DataArray type="Float64" NumberOfComponents="3" format="ascii">
          0.00000000e+00 3.00000000e+00 0.00000000e+00 
1.00000000e+00 3.00000000e+00 0.00000000e+00 
2.00000000e+00 3.00000000e+00 0.00000000e+00 
3.00000000e+00 3.00000000e+00 0.00000000e+00 
0.00000000e+00 3.33333325e+00 0.00000000e+00 
1.00000000e+00 3.33333325e+00 0.00000000e+00 
2.00000000e+00 3.33333325e+00 0.00000000e+00 
3.00000000e+00 3.33333325e+00 0.00000000e+00 
0.00000000e+00 3.66666675e+00 0.00000000e+00 
1.00000000e+00 3.66666675e+00 0.00000000e+00 
2.00000000e+00 3.66666675e+00 0.00000000e+00 
3.00000000e+00 3.66666675e+00 0.00000000e+00 
0.00000000e+00 4.00000000e+00 0.00000000e+00 
1.00000000e+00 4.00000000e+00 0.00000000e+00 
2.00000000e+00 4.00000000e+00 0.00000000e+00 
3.00000000e+00 4.00000000e+00 0.00000000e+00 

        </DataArray>
      </Points>
      <Cells>
        <DataArray type="Int32" Name="connectivity" format="ascii">
0 1 5 4
4 5 9 8
8 9 13 12
1 2 6 5
5 6 10 9
9 10 14 13
2 3 7 6
6 7 11 10
10 11 15 14

        </DataArray>
        <DataArray type="Int32" Name="offsets" format="ascii">
4 8 12 16 20 24 28 32 36 
        </DataArray>
        <DataArray type="UInt8" Name="types" format="ascii">
9 9 9 9 9 9 9 9 9 
        </DataArray>
      </Cells>
      <PointData>
        <DataArray type="Float64" Name="u">
          0.00000000e+00 0.00000000e+00 0.00000000e+00 0.00000000e+00 8.88888889e+01 9.34567558e+01 9.15557333e+01 1.03050117e+02 1.55555556e+02 1.59434586e+02 1.58681984e+02 1.66044397e+02 2.00000000e+02 2.02247317e+02 2.02277472e+02 2.06813885e+02 
        </DataArray>
        <DataArray type="Float64" Name="v">
          0.00000000e+00 0.00000000e+00 0.00000000e+00 0.00000000e+00 0.00000000e+00 -1.22946311e+00 -1.83059916e+00 -4.27342669e+00 0.00000000e+00 -9.46148610e-01 -2.36872359e+00 -4.24022228e+00 0.00000000e+00 -2.41319000e+00 -4.27468850e+00 -6.85772915e+00 
        </DataArray>
        <DataArray type="Float64" Name="p">
          2.30238385e+01 -9.66937450e+02 -1.95689874e+03 -2.94686003e+03 4.79684997e+01 -9.23593155e+02 -1.89515481e+03 -2.86671647e+03 7.29131610e+01 -8.80248861e+02 -1.83341088e+03 -2.78657290e+03 9.78578222e+01 -8.36904566e+02 -1.77166695e+03 -2.70642934e+03 
        </DataArray>
      </PointData>
    </Piece>
    <Piece NumberOfPoints="16" NumberOfCells="9">
      <Points>
        <DataArray type="Float64" NumberOfComponents="3" format="ascii">
          0.00000000e+00 4.00000000e+00 0.00000000e+00 
1.00000000e+00 4.00000000e+00 0.00000000e+00 
2.00000000e+00 4.00000000e+00 0.00000000e+00 
3.00000000e+00 4.00000000e+00 0.00000000e+00 
0.00000000e+00 4.33333349e+00 0.00000000e+00 
1.00000000e+00 4.33333349e+00 0.00000000e+00 
2.00000000e+00 4.33333349e+00 0.00000000e+00 
3.00000000e+00 4.33333349e+00 0.00000000e+00 
0.00000000e+00 4.66666651e+00 0.00000000e+00 
1.00000000e+00 4.66666651e+00 0.00000000e+00 
2.00000000e+00 4.66666651e+00 0.00000000e+00 
3.00000000e+00 4.66666651e+00 0.00000000e+00 
0.00000000e+00 5.00000000e+00 0.00000000e+00 
1.00000000e+00 5.00000000e+00 0.00000000e+00 
2.00000000e+00 5.00000000e+00 0.00000000e+00 
3.00000000e+00 5.00000000e+00 0.00000000e+00 

        </DataArray>
      </Points>
      <Cells>
        <DataArray type="Int32" Name="connectivity" format="ascii">
0 1 5 4
4 5 9 8
8 9 13 12
1 2 6 5
5 6 10 9
9 10 14 13
2 3 7 6
6 7 11 10
10 11 15 14

        </DataArray>
        <DataArray type="Int32" Name="offsets" format="ascii">
4 8 12 16 20 24 28 32 36 
        </DataArray>
        <DataArray type="UInt8" Name="types" format="ascii">
9 9 9 9 9 9 9 9 9 
        </DataArray>
      </Cells>
      <PointData>
        <DataArray type="Float64" Name="u">
          2.00000000e+02 2.02247317e+02 2.02277472e+02 2.06813885e+02 2.22222222e+02 2.22943517e+02 2.22929511e+02 2.24167587e+02 2.22222222e+02 2.21221886e+02 2.21093373e+02 2.19229325e+02 2.00000000e+02 1.97493132e+02 1.97502069e+02 1.92455537e+02 
        </DataArray>
        <DataArray type="Float64" Name="v">
          0.00000000e+00 -2.41319000e+00 -4.27468850e+00 -6.85772915e+00 0.00000000e+00 -2.78310803e+00 -5.10564906e+00 -6.94443160e+00 0.00000000e+00 -2.80927399e+00 -5.02455914e+00 -7.06983692e+00 0.00000000e+00 -2.25472318e+00 -4.29951585e+00 -5.96758993e+00 
        </DataArray>
        <DataArray type="Float64" Name="p">
          1.24455176e+02 -8.06855852e+02 -1.73816688e+03 -2.66947791e+03 3.39098075e+02 -6.17581331e+02 -1.57426074e+03 -2.53094014e+03 5.53740973e+02 -4.28306810e+02 -1.41035459e+03 -2.39240238e+03 7.68383871e+02 -2.39032289e+02 -1.24644845e+03 -2.25386461e+03 
        </DataArray>
      </PointData>
    </Piece>
    <Piece NumberOfPoints="16" NumberOfCells="9">
      <Points>
        <DataArray type="Float64" NumberOfComponents="3" format="ascii">
          0.00000000e+00 5.00000000e+00 0.00000000e+00 
1.00000000e+00 5.00000000e+00 0.00000000e+00 
2.00000000e+00 5.00000000e+00 0.00000000e+00 
3.00000000e+00 5.00000000e+00 0.00000000e+00 
0.00000000e+00 5.33333349e+00 0.00000000e+00 
1.00000000e+00 5.33333349e+00 0.00000000e+00 
2.00000000e+00 5.33333349e+00 0.00000000e+00 
3.00000000e+00 5.33333349e+00 0.00000000e+00 
0.00000000e+00 5.66666651e+00 0.00000000e+00 
1.00000000e+00 5.66666651e+00 0.00000000e+00 
2.00000000e+00 5.66666651e+00 0.00000000e+00 
3.00000000e+00 5.66666651e+00 0.00000000e+00 
0.00000000e+00 6.00000000e+00 0.00000000e+00 
1.00000000e+00 6.00000000e+00 0.00000000e+00 
2.00000000e+00 6.00000000e+00 0.00000000e+00 
3.00000000e+00 6.00000000e+00 0.00000000e+00 

        </DataArray>
      </Points>
      <Cells>
        <DataArray type="Int32" Name="connectivity" format="ascii">
0 1 5 4
4 5 9 8
8 9 13 12
1 2 6 5
5 6 10 9
9 10 14 13
2 3 7 6
6 7 11 10
10 11 15 14

        </DataArray>
        <DataArray type="Int32" Name="offsets" format="ascii">
4 8 12 16 20 24 28 32 36 
        </DataArray>
        <DataArray type="UInt8" Name="types" format="ascii">
9 9 9 9 9 9 9 9 9 
        </DataArray>
      </Cells>
      <PointData>
        <DataArray type="Float64" Name="u">
          2.00000000e+02 1.97493132e+02 1.97502069e+02 1.92455537e+02 1.55555556e+02 1.51956025e+02 1.52414117e+02 1.44930468e+02 8.88888889e+01 8.52215389e+01 8.60776465e+01 7.63984904e+01 0.00000000e+00 0.00000000e+00 0.00000000e+00 0.00000000e+00 
        </DataArray>
        <DataArray type="Float64" Name="v">
          0.00000000e+00 -2.25472318e+00 -4.29951585e+00 -5.96758993e+00 0.00000000e+00 -9.08857738e-01 -2.25010628e+00 -3.75646922e+00 0.00000000e+00 -1.00472909e+00 -2.04899842e+00 -2.26907583e+00 0.00000000e+00 0.00000000e+00 0.00000000e+00 0.00000000e+00 
        </DataArray>
        <DataArray type="Float64" Name="p">
          7.81950755e+02 -2.11899893e+02 -1.20575054e+03 -2.19960119e+03 8.20741129e+02 -1.67392932e+02 -1.15552699e+03 -2.14366105e+03 8.59531503e+02 -1.22885970e+02 -1.10530344e+03 -2.08772092e+03 8.98321877e+02 -7.83790079e+01 -1.05507989e+03 -2.03178078e+03 
        </DataArray>
      </PointData>
    </Piece>
    <Piece NumberOfPoints="16" NumberOfCells="9">
      <Points>
        <DataArray type="Float64" NumberOfComponents="3" format="ascii">
          3.00000000e+00 0.00000000e+00 0.00000000e+00 
4.00000000e+00 0.00000000e+00 0.00000000e+00 
5.00000000e+00 0.00000000e+00 0.00000000e+00 
6.00000000e+00 0.00000000e+00 0.00000000e+00 
3.00000000e+00 3.33333343e-01 0.00000000e+00 
4.00000000e+00 3.33333343e-01 0.00000000e+00 
5.00000000e+00 3.33333343e-01 0.00000000e+00 
6.00000000e+00 3.33333343e-01 0.00000000e+00 
3.00000000e+00 6.66666687e-01 0.00000000e+00 
4.00000000e+00 6.66666687e-01 0.00000000e+00 
5.00000000e+00 6.66666687e-01 0.00000000e+00 
6.00000000e+00 6.66666687e-01 0.00000000e+00 
3.00000000e+00 1.00000000e+00 0.00000000e+00 
4.00000000e+00 1.00000000e+00 0.00000000e+00 
5.00000000e+00 1.00000000e+00 0.00000000e+00 
6.00000000e+00 1.00000000e+00 0.00000000e+00 

        </DataArray>
      </Points>
      <Cells>
        <DataArray type="Int32" Name="connectivity" format="ascii">
0 1 5 4
4 5 9 8
8 9 13 12
1 2 6 5
5 6 10 9
9 10 14 13
2 3 7 6
6 7 11 10
10 11 15 14

        </DataArray>
        <DataArray type="Int32" Name="offsets" format="ascii">
4 8 12 16 20 24 28 32 36 
        </DataArray>
        <DataArray type="UInt8" Name="types" format="ascii">
9 9 9 9 9 9 9 9 9 
        </DataArray>
      </Cells>
      <PointData>
        <DataArray type="Float64" Name="u">
          0.00000000e+00 0.00000000e+00 0.00000000e+00 0.00000000e+00 0.00000000e+00 -3.44976998e+00 -6.05914396e+00 -1.06599934e+01 0.00000000e+00 -6.07123534e+00 -1.08841981e+01 -1.91488585e+01 0.00000000e+00 -7.69769118e+00 -1.36959451e+01 -2.27247090e+01 
        </DataArray>
        <DataArray type="Float64" Name="v">
          0.00000000e+00 0.00000000e+00 0.00000000e+00 0.00000000e+00 0.00000000e+00 8.64775227e-01 8.79212020e-01 7.24952694e-01 0.00000000e+00 2.56857450e+00 2.56920948e+00 1.81582464e+00 0.00000000e+00 5.57101305e+00 5.72388699e+00 3.49905477e+00 
        </DataArray>
        <DataArray type="Float64" Name="p">
          -3.51761094e+03 -3.48253376e+03 -3.44745659e+03 -3.41237941e+03 -3.50959351e+03 -3.47387302e+03 -3.43815252e+03 -3.40243203e+03 -3.50157608e+03 -3.46521227e+03 -3.42884846e+03 -3.39248465e+03 -3.49355865e+03 -3.45655152e+03 -3.41954439e+03 -3.38253727e+03 
        </DataArray>
      </PointData>
    </Piece>
    <Piece NumberOfPoints="16" NumberOfCells="9">
      <Points>
        <DataArray type="Float64" NumberOfComponents="3" format="ascii">
          3.00000000e+00 1.00000000e+00 0.00000000e+00 
4.00000000e+00 1.00000000e+00 0.00000000e+00 
5.00000000e+00 1.00000000e+00 0.00000000e+00 
6.00000000e+00 1.00000000e+00 0.00000000e+00 
3.00000000e+00 1.33333337e+00 0.00000000e+00 
4.00000000e+00 1.33333337e+00 0.00000000e+00 
5.00000000e+00 1.33333337e+00 0.00000000e+00 
6.00000000e+00 1.33333337e+00 0.00000000e+00 
3.00000000e+00 1.66666663e+00 0.00000000e+00 
4.00000000e+00 1.66666663e+00 0.00000000e+00 
5.00000000e+00 1.66666663e+00 0.00000000e+00 
6.00000000e+00 1.66666663e+00 0.00000000e+00 
3.00000000e+00 2.00000000e+00 0.00000000e+00 
4.00000000e+00 2.00000000e+00 0.00000000e+00 
5.00000000e+00 2.00000000e+00 0.00000000e+00 
6.00000000e+00 2.00000000e+00 0.00000000e+00 

        </DataArray>
      </Points>
      <Cells>
        <DataArray type="Int32" Name="connectivity" format="ascii">
0 1 5 4
4 5 9 8
8 9 13 12
1 2 6 5
5 6 10 9
9 10 14 13
2 3 7 6
6 7 11 10
10 11 15 14

        </DataArray>
        <DataArray type="Int32" Name="offsets" format="ascii">
4 8 12 16 20 24 28 32 36 
        </DataArray>
        <DataArray type="UInt8" Name="types" format="ascii">
9 9 9 9 9 9 9 9 9 
        </DataArray>
      </Cells>
      <PointData>
        <DataArray type="Float64" Name="u">
          0.00000000e+00 -7.69769118e+00 -1.36959451e+01 -2.27247090e+01 0.00000000e+00 -8.19093693e+00 -1.36828495e+01 -2.05768367e+01 0.00000000e+00 -7.42712404e+00 -1.04303211e+01 -1.23775563e+01 0.00000000e+00 -4.94882868e+00 -3.35087411e+00 2.32674319e+00 
        </DataArray>
        <DataArray type="Float64" Name="v">
          0.00000000e+00 5.57101305e+00 5.72388699e+00 3.49905477e+00 0.00000000e+00 9.08529799e+00 8.67187548e+00 4.69993132e+00 0.00000000e+00 1.17687713e+01 1.04663041e+01 4.56888892e+00 0.00000000e+00 1.42129007e+01 1.07030021e+01 2.38976147e+00 
        </DataArray>
        <DataArray type="Float64" Name="p">
          -3.48435937e+03 -3.45581133e+03 -3.42726329e+03 -3.39871525e+03 -3.51451481e+03 -3.49821956e+03 -3.48192431e+03 -3.46562907e+03 -3.54467025e+03 -3.54062779e+03 -3.53658534e+03 -3.53254288e+03 -3.57482569e+03 -3.58303602e+03 -3.59124636e+03 -3.59945670e+03 
        </DataArray>
      </PointData>
    </Piece>
    <Piece NumberOfPoints="16" NumberOfCells="9">
      <Points>
        <DataArray type="Float64" NumberOfComponents="3" format="ascii">
          3.00000000e+00 2.00000000e+00 0.00000000e+00 
4.00000000e+00 2.00000000e+00 0.00000000e+00 
5.00000000e+00 2.00000000e+00 0.00000000e+00 
6.00000000e+00 2.00000000e+00 0.00000000e+00 
3.00000000e+00 2.33333325e+00 0.00000000e+00 
4.00000000e+00 2.33333325e+00 0.00000000e+00 
5.00000000e+00 2.33333325e+00 0.00000000e+00 
6.00000000e+00 2.33333325e+00 0.00000000e+00 
3.00000000e+00 2.66666675e+00 0.00000000e+00 
4.00000000e+00 2.66666675e+00 0.00000000e+00 
5.00000000e+00 2.66666675e+00 0.00000000e+00 
6.00000000e+00 2.66666675e+00 0.00000000e+00 
3.00000000e+00 3.00000000e+00 0.00000000e+00 
4.00000000e+00 3.00000000e+00 0.00000000e+00 
5.00000000e+00 3.00000000e+00 0.00000000e+00 
6.00000000e+00 3.00000000e+00 0.00000000e+00 

        </DataArray>
      </Points>
      <Cells>
        <DataArray type="Int32" Name="connectivity" format="ascii">
0 1 5 4
4 5 9 8
8 9 13 12
1 2 6 5
5 6 10 9
9 10 14 13
2 3 7 6
6 7 11 10
10 11 15 14

        </DataArray>
        <DataArray type="Int32" Name="offsets" format="ascii">
4 8 12 16 20 24 28 32 36 
        </DataArray>
        <DataArray type="UInt8" Name="types" format="ascii">
9 9 9 9 9 9 9 9 9 
        </DataArray>
      </Cells>
      <PointData>
        <DataArray type="Float64" Name="u">
          0.00000000e+00 -4.94882868e+00 -3.35087411e+00 2.32674319e+00 0.00000000e+00 5.30998100e-01 8.11770824e+00 2.55247564e+01 0.00000000e+00 1.58096972e+01 3.02571841e+01 5.68500230e+01 0.00000000e+00 5.71682467e+01 7.26180813e+01 1.00255222e+02 
        </DataArray>
        <DataArray type="Float64" Name="v">
          0.00000000e+00 1.42129007e+01 1.07030021e+01 2.38976147e+00 0.00000000e+00 1.50469907e+01 6.93565035e+00 -3.69583967e+00 0.00000000e+00 1.10181666e+01 2.55205979e+00 -8.27894767e+00 0.00000000e+00 -1.35028043e+00 -7.32902266e+00 -1.33933887e+01 
        </DataArray>
        <DataArray type="Float64" Name="p">
          -3.54358233e+03 -3.59215404e+03 -3.64072574e+03 -3.68929745e+03 -3.71855609e+03 -3.65939531e+03 -3.60023454e+03 -3.54107377e+03 -3.89352984e+03 -3.72663659e+03 -3.55974334e+03 -3.39285009e+03 -4.06850360e+03 -3.79387787e+03 -3.51925214e+03 -3.24462641e+03 
        </DataArray>
      </PointData>
    </Piece>
    <Piece NumberOfPoints="16" NumberOfCells="9">
      <Points>
        <DataArray type="Float64" NumberOfComponents="3" format="ascii">
          3.00000000e+00 3.00000000e+00 0.00000000e+00 
4.00000000e+00 3.00000000e+00 0.00000000e+00 
5.00000000e+00 3.00000000e+00 0.00000000e+00 
6.00000000e+00 3.00000000e+00 0.00000000e+00 
3.00000000e+00 3.33333325e+00 0.00000000e+00 
4.00000000e+00 3.33333325e+00 0.00000000e+00 
5.00000000e+00 3.33333325e+00 0.00000000e+00 
6.00000000e+00 3.33333325e+00 0.00000000e+00 
3.00000000e+00 3.66666675e+00 0.00000000e+00 
4.00000000e+00 3.66666675e+00 0.00000000e+00 
5.00000000e+00 3.66666675e+00 0.00000000e+00 
6.00000000e+00 3.66666675e+00 0.00000000e+00 
3.00000000e+00 4.00000000e+00 0.00000000e+00 
4.00000000e+00 4.00000000e+00 0.00000000e+00 
5.00000000e+00 4.00000000e+00 0.00000000e+00 
6.00000000e+00 4.00000000e+00 0.00000000e+00 

        </DataArray>
      </Points>
      <Cells>
        <DataArray type="Int32" Name="connectivity" format="ascii">
0 1 5 4
4 5 9 8
8 9 13 12
1 2 6 5
5 6 10 9
9 10 14 13
2 3 7 6
6 7 11 10
10 11 15 14

        </DataArray>
        <DataArray type="Int32" Name="offsets" format="ascii">
4 8 12 16 20 24 28 32 36 
        </DataArray>
        <DataArray type="UInt8" Name="types" format="ascii">
9 9 9 9 9 9 9 9 9 
        </DataArray>
      </Cells>
      <PointData>
        <DataArray type="Float64" Name="u">
          0.00000000e+00 5.71682467e+01 7.26180813e+01 1.00255222e+02 1.03050117e+02 1.13622266e+02 1.28485293e+02 1.43826543e+02 1.66044397e+02 1.68043751e+02 1.75999652e+02 1.82239593e+02 2.06813885e+02 2.03326259e+02 2.07263668e+02 2.04869899e+02 
        </DataArray>
        <DataArray type="Float64" Name="v">
          0.00000000e+00 -1.35028043e+00 -7.32902266e+00 -1.33933887e+01 -4.27342669e+00 -1.29575762e+01 -1.60208729e+01 -1.69768344e+01 -4.24022228e+00 -1.28056160e+01 -1.72434575e+01 -1.90059338e+01 -6.85772915e+00 -1.42203387e+01 -1.88906097e+01 -2.29827571e+01 
        </DataArray>
        <DataArray type="Float64" Name="p">
          -4.22343744e+03 -3.87549156e+03 -3.52754568e+03 -3.17959980e+03 -3.71411644e+03 -3.54512911e+03 -3.37614178e+03 -3.20715445e+03 -3.20479544e+03 -3.21476666e+03 -3.22473787e+03 -3.23470909e+03 -2.69547445e+03 -2.88440421e+03 -3.07333397e+03 -3.26226373e+03 
        </DataArray>
      </PointData>
    </Piece>
    <Piece NumberOfPoints="16" NumberOfCells="9">
      <Points>
        <DataArray type="Float64" NumberOfComponents="3" format="ascii">
          3.00000000e+00 4.00000000e+00 0.00000000e+00 
4.00000000e+00 4.00000000e+00 0.00000000e+00 
5.00000000e+00 4.00000000e+00 0.00000000e+00 
6.00000000e+00 4.00000000e+00 0.00000000e+00 
3.00000000e+00 4.33333349e+00 0.00000000e+00 
4.00000000e+00 4.33333349e+00 0.00000000e+00 
5.00000000e+00 4.33333349e+00 0.00000000e+00 
6.00000000e+00 4.33333349e+00 0.00000000e+00 
3.00000000e+00 4.66666651e+00 0.00000000e+00 
4.00000000e+00 4.66666651e+00 0.00000000e+00 
5.00000000e+00 4.66666651e+00 0.00000000e+00 
6.00000000e+00 4.66666651e+00 0.00000000e+00 
3.00000000e+00 5.00000000e+00 0.00000000e+00 
4.00000000e+00 5.00000000e+00 0.00000000e+00 
5.00000000e+00 5.00000000e+00 0.00000000e+00 
6.00000000e+00 5.00000000e+00 0.00000000e+00 

        </DataArray>
      </Points>
      <Cells>
        <DataArray type="Int32" Name="connectivity" format="ascii">
0 1 5 4
4 5 9 8
8 9 13 12
1 2 6 5
5 6 10 9
9 10 14 13
2 3 7 6
6 7 11 10
10 11 15 14

        </DataArray>
        <DataArray type="Int32" Name="offsets" format="ascii">
4 8 12 16 20 24 28 32 36 
        </DataArray>
        <DataArray type="UInt8" Name="types" format="ascii">
9 9 9 9 9 9 9 9 9 
        </DataArray>
      </Cells>
      <PointData>
        <DataArray type="Float64" Name="u">
          2.06813885e+02 2.03326259e+02 2.07263668e+02 2.04869899e+02 2.24167587e+02 2.18316418e+02 2.16619168e+02 2.08907444e+02 2.19229325e+02 2.10735093e+02 2.05147433e+02 1.92464469e+02 1.92455537e+02 1.82809629e+02 1.74653602e+02 1.59460807e+02 
        </DataArray>
        <DataArray type="Float64" Name="v">
          -6.85772915e+00 -1.42203387e+01 -1.88906097e+01 -2.29827571e+01 -6.94443160e+00 -1.17889811e+01 -1.71840746e+01 -2.23235594e+01 -7.06983692e+00 -1.14192074e+01 -1.54315398e+01 -2.01902001e+01 -5.96758993e+00 -6.91596374e+00 -1.09264888e+01 -1.60071450e+01 
        </DataArray>
        <DataArray type="Float64" Name="p">
          -2.55551849e+03 -2.77000618e+03 -2.98449387e+03 -3.19898156e+03 -2.22331310e+03 -2.41054733e+03 -2.59778155e+03 -2.78501578e+03 -1.89110771e+03 -2.05108847e+03 -2.21106923e+03 -2.37105000e+03 -1.55890231e+03 -1.69162961e+03 -1.82435692e+03 -1.95708422e+03 
        </DataArray>
      </PointData>
    </Piece>
    <Piece NumberOfPoints="16" NumberOfCells="9">
      <Points>
        <DataArray type="Float64" NumberOfComponents="3" format="ascii">
          3.00000000e+00 5.00000000e+00 0.00000000e+00 
4.00000000e+00 5.00000000e+00 0.00000000e+00 
5.00000000e+00 5.00000000e+00 0.00000000e+00 
6.00000000e+00 5.00000000e+00 0.00000000e+00 
3.00000000e+00 5.33333349e+00 0.00000000e+00 
4.00000000e+00 5.33333349e+00 0.00000000e+00 
5.00000000e+00 5.33333349e+00 0.00000000e+00 
6.00000000e+00 5.33333349e+00 0.00000000e+00 
3.00000000e+00 5.66666651e+00 0.00000000e+00 
4.00000000e+00 5.66666651e+00 0.00000000e+00 
5.00000000e+00 5.66666651e+00 0.00000000e+00 
6.00000000e+00 5.66666651e+00 0.00000000e+00 
3.00000000e+00 6.00000000e+00 0.00000000e+00 
4.00000000e+00 6.00000000e+00 0.00000000e+00 
5.00000000e+00 6.00000000e+00 0.00000000e+00 
6.00000000e+00 6.00000000e+00 0.00000000e+00 

        </DataArray>
      </Points>
      <Cells>
        <DataArray type="Int32" Name="connectivity" format="ascii">
0 1 5 4
4 5 9 8
8 9 13 12
1 2 6 5
5 6 10 9
9 10 14 13
2 3 7 6
6 7 11 10
10 11 15 14

        </DataArray>
        <DataArray type="Int32" Name="offsets" format="ascii">
4 8 12 16 20 24 28 32 36 
        </DataArray>
        <DataArray type="UInt8" Name="types" format="ascii">
9 9 9 9 9 9 9 9 9 
        </DataArray>
      </Cells>
      <PointData>
        <DataArray type="Float64" Name="u">
          1.92455537e+02 1.82809629e+02 1.74653602e+02 1.59460807e+02 1.44930468e+02 1.35433730e+02 1.27316671e+02 1.14167634e+02 7.63984904e+01 7.74579655e+01 7.36864669e+01 6.89248024e+01 0.00000000e+00 3.27584458e+01 3.15687318e+01 3.84682968e+01 
        </DataArray>
        <DataArray type="Float64" Name="v">
          -5.96758993e+00 -6.91596374e+00 -1.09264888e+01 -1.60071450e+01 -3.75646922e+00 -2.47092285e+00 -5.11848480e+00 -1.04041049e+01 -2.26907583e+00 -2.42311935e+00 -5.89305100e+00 -8.52283138e+00 0.00000000e+00 -6.74753129e+00 -5.12794516e+00 -3.46366337e+00 
        </DataArray>
        <DataArray type="Float64" Name="p">
          -1.62474554e+03 -1.68381179e+03 -1.74287803e+03 -1.80194427e+03 -1.74209397e+03 -1.69580316e+03 -1.64951234e+03 -1.60322152e+03 -1.85944241e+03 -1.70779453e+03 -1.55614665e+03 -1.40449877e+03 -1.97679084e+03 -1.71978589e+03 -1.46278095e+03 -1.20577601e+03 
        </DataArray>
      </PointData>
    </Piece>
    <Piece NumberOfPoints="16" NumberOfCells="9">
      <Points>
        <DataArray type="Float64" NumberOfComponents="3" format="ascii">
          3.00000000e+00 6.00000000e+00 0.00000000e+00 
4.00000000e+00 6.00000000e+00 0.00000000e+00 
5.00000000e+00 6.00000000e+00 0.00000000e+00 
6.00000000e+00 6.00000000e+00 0.00000000e+00 
3.00000000e+00 6.33333349e+00 0.00000000e+00 
4.00000000e+00 6.33333349e+00 0.00000000e+00 
5.00000000e+00 6.33333349e+00 0.00000000e+00 
6.00000000e+00 6.33333349e+00 0.00000000e+00 
3.00000000e+00 6.66666651e+00 0.00000000e+00 
4.00000000e+00 6.66666651e+00 0.00000000e+00 
5.00000000e+00 6.66666651e+00 0.00000000e+00 
6.00000000e+00 6.66666651e+00 0.00000000e+00 
3.00000000e+00 7.00000000e+00 0.00000000e+00 
4.00000000e+00 7.00000000e+00 0.00000000e+00 
5.00000000e+00 7.00000000e+00 0.00000000e+00 
6.00000000e+00 7.00000000e+00 0.00000000e+00 

        </DataArray>
      </Points>
      <Cells>
        <DataArray type="Int32" Name="connectivity" format="ascii">
0 1 5 4
4 5 9 8
8 9 13 12
1 2 6 5
5 6 10 9
9 10 14 13
2 3 7 6
6 7 11 10
10 11 15 14

        </DataArray>
        <DataArray type="Int32" Name="offsets" format="ascii">
4 8 12 16 20 24 28 32 36 
        </DataArray>
        <DataArray type="UInt8" Name="types" format="ascii">
9 9 9 9 9 9 9 9 9 
        </DataArray>
      </Cells>
      <PointData>
        <DataArray type="Float64" Name="u">
          0.00000000e+00 3.27584458e+01 3.15687318e+01 3.84682968e+01 0.00000000e+00 6.32803135e+00 8.86793025e+00 1.43564988e+01 0.00000000e+00 -2.88150181e+00 -2.31195654e+00 -9.82888408e-01 0.00000000e+00 -5.93990617e+00 -7.76879986e+00 -1.04083745e+01 
        </DataArray>
        <DataArray type="Float64" Name="v">
          0.00000000e+00 -6.74753129e+00 -5.12794516e+00 -3.46366337e+00 0.00000000e+00 -1.23852289e+01 -7.61631065e+00 -2.95263763e+00 0.00000000e+00 -1.32614193e+01 -7.66566294e+00 -3.37028458e+00 0.00000000e+00 -1.14232338e+01 -7.81520311e+00 -4.10169970e+00 
        </DataArray>
        <DataArray type="Float64" Name="p">
          -1.95475758e+03 -1.76555345e+03 -1.57634932e+03 -1.38714520e+03 -1.83282754e+03 -1.70140908e+03 -1.56999061e+03 -1.43857214e+03 -1.71089751e+03 -1.63726470e+03 -1.56363189e+03 -1.48999909e+03 -1.58896747e+03 -1.57312032e+03 -1.55727318e+03 -1.54142603e+03 
        </DataArray>
      </PointData>
    </Piece>
    <Piece NumberOfPoints="16" NumberOfCells="9">
      <Points>
        <DataArray type="Float64" NumberOfComponents="3" format="ascii">
          3.00000000e+00 7.00000000e+00 0.00000000e+00 
4.00000000e+00 7.00000000e+00 0.00000000e+00 
5.00000000e+00 7.00000000e+00 0.00000000e+00 
6.00000000e+00 7.00000000e+00 0.00000000e+00 
3.00000000e+00 7.33333349e+00 0.00000000e+00 
4.00000000e+00 7.33333349e+00 0.00000000e+00 
5.00000000e+00 7.33333349e+00 0.00000000e+00 
6.00000000e+00 7.33333349e+00 0.00000000e+00 
3.00000000e+00 7.66666651e+00 0.00000000e+00 
4.00000000e+00 7.66666651e+00 0.00000000e+00 
5.00000000e+00 7.66666651e+00 0.00000000e+00 
6.00000000e+00 7.66666651e+00 0.00000000e+00 
3.00000000e+00 8.00000000e+00 0.00000000e+00 
4.00000000e+00 8.00000000e+00 0.00000000e+00 
5.00000000e+00 8.00000000e+00 0.00000000e+00 
6.00000000e+00 8.00000000e+00 0.00000000e+00 

        </DataArray>
      </Points>
      <Cells>
        <DataArray type="Int32" Name="connectivity" format="ascii">
0 1 5 4
4 5 9 8
8 9 13 12
1 2 6 5
5 6 10 9
9 10 14 13
2 3 7 6
6 7 11 10
10 11 15 14

        </DataArray>
        <DataArray type="Int32" Name="offsets" format="ascii">
4 8 12 16 20 24 28 32 36 
        </DataArray>
        <DataArray type="UInt8" Name="types" format="ascii">
9 9 9 9 9 9 9 9 9 
        </DataArray>
      </Cells>
      <PointData>
        <DataArray type="Float64" Name="u">
          0.00000000e+00 -5.93990617e+00 -7.76879986e+00 -1.04083745e+01 0.00000000e+00 -6.80772519e+00 -1.03497330e+01 -1.48009553e+01 0.00000000e+00 -6.53232236e+00 -1.07249263e+01 -1.59629894e+01 0.00000000e+00 -5.58126069e+00 -9.50832930e+00 -1.46327606e+01 
        </DataArray>
        <DataArray type="Float64" Name="v">
          0.00000000e+00 -1.14232338e+01 -7.81520311e+00 -4.10169970e+00 0.00000000e+00 -8.77726482e+00 -6.44476502e+00 -3.74585091e+00 0.00000000e+00 -6.49058565e+00 -4.97238405e+00 -3.02864608e+00 0.00000000e+00 -3.80423074e+00 -3.10834833e+00 -1.96828364e+00 
        </DataArray>
        <DataArray type="Float64" Name="p">
          -1.59862674e+03 -1.56557334e+03 -1.53251994e+03 -1.49946653e+03 -1.56473166e+03 -1.53704514e+03 -1.50935862e+03 -1.48167210e+03 -1.53083657e+03 -1.50851693e+03 -1.48619730e+03 -1.46387766e+03 -1.49694149e+03 -1.47998873e+03 -1.46303598e+03 -1.44608322e+03 
        </DataArray>
      </PointData>
    </Piece>
    <Piece NumberOfPoints="16" NumberOfCells="9">
      <Points>
        <DataArray type="Float64" NumberOfComponents="3" format="ascii">
          3.00000000e+00 8.00000000e+00 0.00000000e+00 
4.00000000e+00 8.00000000e+00 0.00000000e+00 
5.00000000e+00 8.00000000e+00 0.00000000e+00 
6.00000000e+00 8.00000000e+00 0.00000000e+00 
3.00000000e+00 8.33333302e+00 0.00000000e+00 
4.00000000e+00 8.33333302e+00 0.00000000e+00 
5.00000000e+00 8.33333302e+00 0.00000000e+00 
6.00000000e+00 8.33333302e+00 0.00000000e+00 
3.00000000e+00 8.66666698e+00 0.00000000e+00 
4.00000000e+00 8.66666698e+00 0.00000000e+00 
5.00000000e+00 8.66666698e+00 0.00000000e+00 
6.00000000e+00 8.66666698e+00 0.00000000e+00 
3.00000000e+00 9.00000000e+00 0.00000000e+00 
4.00000000e+00 9.00000000e+00 0.00000000e+00 
5.00000000e+00 9.00000000e+00 0.00000000e+00 
6.00000000e+00 9.00000000e+00 0.00000000e+00 

        </DataArray>
      </Points>
      <Cells>
        <DataArray type="Int32" Name="connectivity" format="ascii">
0 1 5 4
4 5 9 8
8 9 13 12
1 2 6 5
5 6 10 9
9 10 14 13
2 3 7 6
6 7 11 10
10 11 15 14

        </DataArray>
        <DataArray type="Int32" Name="offsets" format="ascii">
4 8 12 16 20 24 28 32 36 
        </DataArray>
        <DataArray type="UInt8" Name="types" format="ascii">
9 9 9 9 9 9 9 9 9 
        </DataArray>
      </Cells>
      <PointData>
        <DataArray type="Float64" Name="u">
          0.00000000e+00 -5.58126069e+00 -9.50832930e+00 -1.46327606e+01 0.00000000e+00 -4.16096652e+00 -7.11346726e+00 -1.13869106e+01 0.00000000e+00 -2.30493806e+00 -3.84235947e+00 -6.44152334e+00 0.00000000e+00 0.00000000e+00 0.00000000e+00 0.00000000e+00 
        </DataArray>
        <DataArray type="Float64" Name="v">
          0.00000000e+00 -3.80423074e+00 -3.10834833e+00 -1.96828364e+00 0.00000000e+00 -1.71005794e+00 -1.48173508e+00 -9.07366642e-01 0.00000000e+00 -5.50504531e-01 -5.14738178e-01 -3.02041113e-01 0.00000000e+00 0.00000000e+00 0.00000000e+00 0.00000000e+00 
        </DataArray>
        <DataArray type="Float64" Name="p">
          -1.50331115e+03 -1.48391040e+03 -1.46450964e+03 -1.44510889e+03 -1.51014492e+03 -1.49018018e+03 -1.47021544e+03 -1.45025071e+03 -1.51697868e+03 -1.49644996e+03 -1.47592124e+03 -1.45539252e+03 -1.52381244e+03 -1.50271974e+03 -1.48162704e+03 -1.46053434e+03 
        </DataArray>
      </PointData>
    </Piece>
    <Piece NumberOfPoints="16" NumberOfCells="9">
      <Points>
        <DataArray type="Float64" NumberOfComponents="3" format="ascii">
          6.00000000e+00 0.00000000e+00 0.00000000e+00 
7.00000000e+00 0.00000000e+00 0.00000000e+00 
8.00000000e+00 0.00000000e+00 0.00000000e+00 
9.00000000e+00 0.00000000e+00 0.00000000e+00 
6.00000000e+00 3.33333343e-01 0.00000000e+00 
7.00000000e+00 3.33333343e-01 0.00000000e+00 
8.00000000e+00 3.33333343e-01 0.00000000e+00 
9.00000000e+00 3.33333343e-01 0.00000000e+00 
6.00000000e+00 6.66666687e-01 0.00000000e+00 
7.00000000e+00 6.66666687e-01 0.00000000e+00 
8.00000000e+00 6.66666687e-01 0.00000000e+00 
9.00000000e+00 6.66666687e-01 0.00000000e+00 
6.00000000e+00 1.00000000e+00 0.00000000e+00 
7.00000000e+00 1.00000000e+00 0.00000000e+00 
8.00000000e+00 1.00000000e+00 0.00000000e+00 
9.00000000e+00 1.00000000e+00 0.00000000e+00 

        </DataArray>
      </Points>
      <Cells>
        <DataArray type="Int32" Name="connectivity" format="ascii">
0 1 5 4
4 5 9 8
8 9 13 12
1 2 6 5
5 6 10 9
9 10 14 13
2 3 7 6
6 7 11 10
10 11 15 14

        </DataArray>
        <DataArray type="Int32" Name="offsets" format="ascii">
4 8 12 16 20 24 28 32 36 
        </DataArray>
        <DataArray type="UInt8" Name="types" format="ascii">
9 9 9 9 9 9 9 9 9 
        </DataArray>
      </Cells>
      <PointData>
        <DataArray type="Float64" Name="u">