<?xml version="1.0"?>
<VTKFile type="UnstructuredGrid" version="0.1" byte_order="LittleEndian">
  <UnstructuredGrid>
    <Piece NumberOfPoints="16" NumberOfCells="9">
      <Points>
        <DataArray type="Float64" NumberOfComponents="3" format="ascii">
          0.00000000e+00 3.00000000e+00 0.00000000e+00 
1.00000000e+00 3.00000000e+00 0.00000000e+00 
2.00000000e+00 3.00000000e+00 0.00000000e+00 
3.00000000e+00 3.00000000e+00 0.00000000e+00 
0.00000000e+00 3.33333325e+00 0.00000000e+00 
1.00000000e+00 3.33333325e+00 0.00000000e+00 
2.00000000e+00 3.33333325e+00 0.00000000e+00 
3.00000000e+00 3.33333325e+00 0.00000000e+00 
0.00000000e+00 3.66666675e+00 0.00000000e+00 
1.00000000e+00 3.66666675e+00 0.00000000e+00 
2.00000000e+00 3.66666675e+00 0.00000000e+00 
3.00000000e+00 3.66666675e+00 0.00000000e+00 
0.00000000e+00 4.00000000e+00 0.00000000e+00 
1.00000000e+00 4.00000000e+00 0.00000000e+00 
2.00000000e+00 4.00000000e+00 0.00000000e+00 
3.00000000e+00 4.00000000e+00 0.00000000e+00 

        </DataArray>
      </Points>
      <Cells>
        <DataArray type="Int32" Name="connectivity" format="ascii">
0 1 5 4
4 5 9 8
8 9 13 12
1 2 6 5
5 6 10 9
9 10 14 13
2 3 7 6
6 7 11 10
10 11 15 14

        </DataArray>
        <DataArray type="Int32" Name="offsets" format="ascii">
4 8 12 16 20 24 28 32 36 
        </DataArray>
        <DataArray type="UInt8" Name="types" format="ascii">
9 9 9 9 9 9 9 9 9 
        </DataArray>
      </Cells>
      <PointData>
        <DataArray type="Float64" Name="u">
          0.00000000e+00 0.00000000e+00 0.00000000e+00 0.00000000e+00 8.88888889e+01 9.33627724e+01 9.15099499e+01 1.02850903e+02 1.55555556e+02 1.59383665e+02 1.58657734e+02 1.65960664e+02 2.00000000e+02 2.02215381e+02 2.02273636e+02 2.06736480e+02 
        </DataArray>
        <DataArray type="Float64" Name="v">
          0.00000000e+00 0.00000000e+00 0.00000000e+00 0.00000000e+00 0.00000000e+00 -1.19915641e+00 -1.78719125e+00 -4.25255196e+00 0.00000000e+00 -9.34857217e-01 -2.34337632e+00 -4.21625077e+00 0.00000000e+00 -2.37709989e+00 -4.22308849e+00 -6.81204990e+00 
        </DataArray>
        <DataArray type="Float64" Name="p">
          2.19773485e+02 -7.99788182e+02 -1.81934985e+03 -2.83891152e+03 2.43410475e+02 -7.57257322e+02 -1.75792512e+03 -2.75859292e+03 2.67047465e+02 -7.14726462e+02 -1.69650039e+03 -2.67827432e+03 2.90684455e+02 -6.72195602e+02 -1.63507566e+03 -2.59795572e+03 
        </DataArray>
      </PointData>
    </Piece>
    <Piece NumberOfPoints="16" NumberOfCells="9">
      <Points>
        <DataArray type="Float64" NumberOfComponents="3" format="ascii">
          0.00000000e+00 4.00000000e+00 0.00000000e+00 
1.00000000e+00 4.00000000e+00 0.00000000e+00 
2.00000000e+00 4.00000000e+00 0.00000000e+00 
3.00000000e+00 4.00000000e+00 0.00000000e+00 
0.00000000e+00 4.33333349e+00 0.00000000e+00 
1.00000000e+00 4.33333349e+00 0.00000000e+00 
2.00000000e+00 4.33333349e+00 0.00000000e+00 
3.00000000e+00 4.33333349e+00 0.00000000e+00 
0.00000000e+00 4.66666651e+00 0.00000000e+00 
1.00000000e+00 4.66666651e+00 0.00000000e+00 
2.00000000e+00 4.66666651e+00 0.00000000e+00 
3.00000000e+00 4.66666651e+00 0.00000000e+00 
0.00000000e+00 5.00000000e+00 0.00000000e+00 
1.00000000e+00 5.00000000e+00 0.00000000e+00 
2.00000000e+00 5.00000000e+00 0.00000000e+00 
3.00000000e+00 5.00000000e+00 0.00000000e+00 

        </DataArray>
      </Points>
      <Cells>
        <DataArray type="Int32" Name="connectivity" format="ascii">
0 1 5 4
4 5 9 8
8 9 13 12
1 2 6 5
5 6 10 9
9 10 14 13
2 3 7 6
6 7 11 10
10 11 15 14

        </DataArray>
        <DataArray type="Int32" Name="offsets" format="ascii">
4 8 12 16 20 24 28 32 36 
        </DataArray>
        <DataArray type="UInt8" Name="types" format="ascii">
9 9 9 9 9 9 9 9 9 
        </DataArray>
      </Cells>
      <PointData>
        <DataArray type="Float64" Name="u">
          2.00000000e+02 2.02215381e+02 2.02273636e+02 2.06736480e+02 2.22222222e+02 2.22918708e+02 2.22927870e+02 2.24141623e+02 2.22222222e+02 2.21208673e+02 2.21106539e+02 2.19233039e+02 2.00000000e+02 1.97490272e+02 1.97530065e+02 1.92500920e+02 
        </DataArray>
        <DataArray type="Float64" Name="v">
          0.00000000e+00 -2.37709989e+00 -4.22308849e+00 -6.81204990e+00 0.00000000e+00 -2.74084146e+00 -5.04725587e+00 -6.88815943e+00 0.00000000e+00 -2.76809272e+00 -4.96330170e+00 -7.02121761e+00 0.00000000e+00 -2.21341255e+00 -4.24516401e+00 -5.91290232e+00 
        </DataArray>
        <DataArray type="Float64" Name="p">
          3.17378813e+02 -6.42051392e+02 -1.60148160e+03 -2.56091180e+03 5.28101398e+02 -4.54864571e+02 -1.43783054e+03 -2.42079651e+03 7.38823983e+02 -2.67677750e+02 -1.27417948e+03 -2.28068122e+03 9.49546569e+02 -8.04909288e+01 -1.11052843e+03 -2.14056592e+03 
        </DataArray>
      </PointData>
    </Piece>
    <Piece NumberOfPoints="16" NumberOfCells="9">
      <Points>
        <DataArray type="Float64" NumberOfComponents="3" format="ascii">
          0.00000000e+00 5.00000000e+00 0.00000000e+00 
1.00000000e+00 5.00000000e+00 0.00000000e+00 
2.00000000e+00 5.00000000e+00 0.00000000e+00 
3.00000000e+00 5.00000000e+00 0.00000000e+00 
0.00000000e+00 5.33333349e+00 0.00000000e+00 
1.00000000e+00 5.33333349e+00 0.00000000e+00 
2.00000000e+00 5.33333349e+00 0.00000000e+00 
3.00000000e+00 5.33333349e+00 0.00000000e+00 
0.00000000e+00 5.66666651e+00 0.00000000e+00 
1.00000000e+00 5.66666651e+00 0.00000000e+00 
2.00000000e+00 5.66666651e+00 0.00000000e+00 
3.00000000e+00 5.66666651e+00 0.00000000e+00 
0.00000000e+00 6.00000000e+00 0.00000000e+00 
1.00000000e+00 6.00000000e+00 0.00000000e+00 
2.00000000e+00 6.00000000e+00 0.00000000e+00 
3.00000000e+00 6.00000000e+00 0.00000000e+00 

        </DataArray>
      </Points>
      <Cells>
        <DataArray type="Int32" Name="connectivity" format="ascii">
0 1 5 4
4 5 9 8
8 9 13 12
1 2 6 5
5 6 10 9
9 10 14 13
2 3 7 6
6 7 11 10
10 11 15 14

        </DataArray>
        <DataArray type="Int32" Name="offsets" format="ascii">
4 8 12 16 20 24 28 32 36 
        </DataArray>
        <DataArray type="UInt8" Name="types" format="ascii">
9 9 9 9 9 9 9 9 9 
        </DataArray>
      </Cells>
      <PointData>
        <DataArray type="Float64" Name="u">
          2.00000000e+02 1.97490272e+02 1.97530065e+02 1.92500920e+02 1.55555556e+02 1.51989243e+02 1.52469332e+02 1.45026699e+02 8.88888889e+01 8.53073120e+01 8.61519649e+01 7.66288066e+01 0.00000000e+00 0.00000000e+00 0.00000000e+00 0.00000000e+00 
        </DataArray>
        <DataArray type="Float64" Name="v">
          0.00000000e+00 -2.21341255e+00 -4.24516401e+00 -5.91290232e+00 0.00000000e+00 -8.92383162e-01 -2.22454577e+00 -3.71899732e+00 0.00000000e+00 -9.71946895e-01 -2.01139562e+00 -2.20965651e+00 0.00000000e+00 0.00000000e+00 0.00000000e+00 0.00000000e+00 
        </DataArray>
        <DataArray type="Float64" Name="p">
          9.62514832e+02 -5.36997548e+01 -1.06991434e+03 -2.08612893e+03 1.00040226e+03 -9.87126539e+00 -1.02014479e+03 -2.03041831e+03 1.03828968e+03 3.39572240e+01 -9.70375231e+02 -1.97470769e+03 1.07617710e+03 7.77857135e+01 -9.20605675e+02 -1.91899706e+03 
        </DataArray>
      </PointData>
    </Piece>
    <Piece NumberOfPoints="16" NumberOfCells="9">
      <Points>
        <DataArray type="Float64" NumberOfComponents="3" format="ascii">
          3.00000000e+00 0.00000000e+00 0.00000000e+00 
4.00000000e+00 0.00000000e+00 0.00000000e+00 
5.00000000e+00 0.00000000e+00 0.00000000e+00 
6.00000000e+00 0.00000000e+00 0.00000000e+00 
3.00000000e+00 3.33333343e-01 0.00000000e+00 
4.00000000e+00 3.33333343e-01 0.00000000e+00 
5.00000000e+00 3.33333343e-01 0.00000000e+00 
6.00000000e+00 3.33333343e-01 0.00000000e+00 
3.00000000e+00 6.66666687e-01 0.00000000e+00 
4.00000000e+00 6.66666687e-01 0.00000000e+00 
5.00000000e+00 6.66666687e-01 0.00000000e+00 
6.00000000e+00 6.66666687e-01 0.00000000e+00 
3.00000000e+00 1.00000000e+00 0.00000000e+00 
4.00000000e+00 1.00000000e+00 0.00000000e+00 
5.00000000e+00 1.00000000e+00 0.00000000e+00 
6.00000000e+00 1.00000000e+00 0.00000000e+00 

        </DataArray>
      </Points>
      <Cells>
        <DataArray type="Int32" Name="connectivity" format="ascii">
0 1 5 4
4 5 9 8
8 9 13 12
1 2 6 5
5 6 10 9
9 10 14 13
2 3 7 6
6 7 11 10
10 11 15 14

        </DataArray>
        <DataArray type="Int32" Name="offsets" format="ascii">
4 8 12 16 20 24 28 32 36 
        </DataArray>
        <DataArray type="UInt8" Name="types" format="ascii">
9 9 9 9 9 9 9 9 9 
        </DataArray>
      </Cells>
      <PointData>
        <DataArray type="Float64" Name="u">
          0.00000000e+00 0.00000000e+00 0.00000000e+00 0.00000000e+00 0.00000000e+00 -3.53288494e+00 -6.14333581e+00 -1.08727438e+01 0.00000000e+00 -6.19365796e+00 -1.10064556e+01 -1.94003627e+01 0.00000000e+00 -7.82816812e+00 -1.38047788e+01 -2.29122295e+01 
        </DataArray>
        <DataArray type="Float64" Name="v">
          0.00000000e+00 0.00000000e+00 0.00000000e+00 0.00000000e+00 0.00000000e+00 8.79971730e-01 9.03721494e-01 7.42629869e-01 0.00000000e+00 2.60992731e+00 2.62083618e+00 1.83473165e+00 0.00000000e+00 5.65275774e+00 5.80653633e+00 3.53263412e+00 
        </DataArray>
        <DataArray type="Float64" Name="p">
          -3.39805604e+03 -3.35979296e+03 -3.32152987e+03 -3.28326679e+03 -3.38955996e+03 -3.35079342e+03 -3.31202688e+03 -3.27326034e+03 -3.38106388e+03 -3.34179388e+03 -3.30252389e+03 -3.26325389e+03 -3.37256779e+03 -3.33279434e+03 -3.29302089e+03 -3.25324744e+03 
        </DataArray>
      </PointData>
    </Piece>
    <Piece NumberOfPoints="16" NumberOfCells="9">
      <Points>
        <DataArray type="Float64" NumberOfComponents="3" format="ascii">
          3.00000000e+00 1.00000000e+00 0.00000000e+00 
4.00000000e+00 1.00000000e+00 0.00000000e+00 
5.00000000e+00 1.00000000e+00 0.00000000e+00 
6.00000000e+00 1.00000000e+00 0.00000000e+00 
3.00000000e+00 1.33333337e+00 0.00000000e+00 
4.00000000e+00 1.33333337e+00 0.00000000e+00 
5.00000000e+00 1.33333337e+00 0.00000000e+00 
6.00000000e+00 1.33333337e+00 0.00000000e+00 
3.00000000e+00 1.66666663e+00 0.00000000e+00 
4.00000000e+00 1.66666663e+00 0.00000000e+00 
5.00000000e+00 1.66666663e+00 0.00000000e+00 
6.00000000e+00 1.66666663e+00 0.00000000e+00 
3.00000000e+00 2.00000000e+00 0.00000000e+00 
4.00000000e+00 2.00000000e+00 0.00000000e+00 
5.00000000e+00 2.00000000e+00 0.00000000e+00 
6.00000000e+00 2.00000000e+00 0.00000000e+00 

        </DataArray>
      </Points>
      <Cells>
        <DataArray type="Int32" Name="connectivity" format="ascii">
0 1 5 4
4 5 9 8
8 9 13 12
1 2 6 5
5 6 10 9
9 10 14 13
2 3 7 6
6 7 11 10
10 11 15 14

        </DataArray>
        <DataArray type="Int32" Name="offsets" format="ascii">
4 8 12 16 20 24 28 32 36 
        </DataArray>
        <DataArray type="UInt8" Name="types" format="ascii">
9 9 9 9 9 9 9 9 9 
        </DataArray>
      </Cells>
      <PointData>
        <DataArray type="Float64" Name="u">
          0.00000000e+00 -7.82816812e+00 -1.38047788e+01 -2.29122295e+01 0.00000000e+00 -8.30577999e+00 -1.37380369e+01 -2.06492163e+01 0.00000000e+00 -7.50376894e+00 -1.04072337e+01 -1.22971787e+01 0.00000000e+00 -4.95842179e+00 -3.23657580e+00 2.57293700e+00 
        </DataArray>
        <DataArray type="Float64" Name="v">
          0.00000000e+00 5.65275774e+00 5.80653633e+00 3.53263412e+00 0.00000000e+00 9.20001749e+00 8.77086275e+00 4.69422000e+00 0.00000000e+00 1.19022385e+01 1.05641056e+01 4.52920542e+00 0.00000000e+00 1.43466783e+01 1.07698261e+01 2.28716241e+00 
        </DataArray>
        <DataArray type="Float64" Name="p">
          -3.36312631e+03 -3.33214874e+03 -3.30117117e+03 -3.27019360e+03 -3.39437546e+03 -3.37588037e+03 -3.35738527e+03 -3.33889018e+03 -3.42562461e+03 -3.41961199e+03 -3.41359938e+03 -3.40758676e+03 -3.45687376e+03 -3.46334362e+03 -3.46981348e+03 -3.47628333e+03 
        </DataArray>
      </PointData>
    </Piece>
    <Piece NumberOfPoints="16" NumberOfCells="9">
      <Points>
        <DataArray type="Float64" NumberOfComponents="3" format="ascii">
          3.00000000e+00 2.00000000e+00 0.00000000e+00 
4.00000000e+00 2.00000000e+00 0.00000000e+00 
5.00000000e+00 2.00000000e+00 0.00000000e+00 
6.00000000e+00 2.00000000e+00 0.00000000e+00 
3.00000000e+00 2.33333325e+00 0.00000000e+00 
4.00000000e+00 2.33333325e+00 0.00000000e+00 
5.00000000e+00 2.33333325e+00 0.00000000e+00 
6.00000000e+00 2.33333325e+00 0.00000000e+00 
3.00000000e+00 2.66666675e+00 0.00000000e+00 
4.00000000e+00 2.66666675e+00 0.00000000e+00 
5.00000000e+00 2.66666675e+00 0.00000000e+00 
6.00000000e+00 2.66666675e+00 0.00000000e+00 
3.00000000e+00 3.00000000e+00 0.00000000e+00 
4.00000000e+00 3.00000000e+00 0.00000000e+00 
5.00000000e+00 3.00000000e+00 0.00000000e+00 
6.00000000e+00 3.00000000e+00 0.00000000e+00 

        </DataArray>
      </Points>
      <Cells>
        <DataArray type="Int32" Name="connectivity" format="ascii">
0 1 5 4
4 5 9 8
8 9 13 12
1 2 6 5
5 6 10 9
9 10 14 13
2 3 7 6
6 7 11 10
10 11 15 14

        </DataArray>
        <DataArray type="Int32" Name="offsets" format="ascii">
4 8 12 16 20 24 28 32 36 
        </DataArray>
        <DataArray type="UInt8" Name="types" format="ascii">
9 9 9 9 9 9 9 9 9 
        </DataArray>
      </Cells>
      <PointData>
        <DataArray type="Float64" Name="u">
          0.00000000e+00 -4.95842179e+00 -3.23657580e+00 2.57293700e+00 0.00000000e+00 6.27182244e-01 8.34083824e+00 2.58771296e+01 0.00000000e+00 1.60463452e+01 3.05564918e+01 5.71797124e+01 0.00000000e+00 5.73227812e+01 7.26880233e+01 1.00308102e+02 
        </DataArray>
        <DataArray type="Float64" Name="v">
          0.00000000e+00 1.43466783e+01 1.07698261e+01 2.28716241e+00 0.00000000e+00 1.51553881e+01 6.96114173e+00 -3.81735576e+00 0.00000000e+00 1.10551281e+01 2.50692154e+00 -8.39906277e+00 0.00000000e+00 -1.38300568e+00 -7.37396606e+00 -1.34429310e+01 
        </DataArray>
        <DataArray type="Float64" Name="p">
          -3.42486411e+03 -3.47249835e+03 -3.52013260e+03 -3.56776684e+03 -3.60512451e+03 -3.54203875e+03 -3.47895298e+03 -3.41586722e+03 -3.78538491e+03 -3.61157914e+03 -3.43777337e+03 -3.26396760e+03 -3.96564532e+03 -3.68111954e+03 -3.39659375e+03 -3.11206797e+03 
        </DataArray>
      </PointData>
    </Piece>
    <Piece NumberOfPoints="16" NumberOfCells="9">
      <Points>
        <DataArray type="Float64" NumberOfComponents="3" format="ascii">
          3.00000000e+00 3.00000000e+00 0.00000000e+00 
4.00000000e+00 3.00000000e+00 0.00000000e+00 
5.00000000e+00 3.00000000e+00 0.00000000e+00 
6.00000000e+00 3.00000000e+00 0.00000000e+00 
3.00000000e+00 3.33333325e+00 0.00000000e+00 
4.00000000e+00 3.33333325e+00 0.00000000e+00 
5.00000000e+00 3.33333325e+00 0.00000000e+00 
6.00000000e+00 3.33333325e+00 0.00000000e+00 
3.00000000e+00 3.66666675e+00 0.00000000e+00 
4.00000000e+00 3.66666675e+00 0.00000000e+00 
5.00000000e+00 3.66666675e+00 0.00000000e+00 
6.00000000e+00 3.66666675e+00 0.00000000e+00 
3.00000000e+00 4.00000000e+00 0.00000000e+00 
4.00000000e+00 4.00000000e+00 0.00000000e+00 
5.00000000e+00 4.00000000e+00 0.00000000e+00 
6.00000000e+00 4.00000000e+00 0.00000000e+00 

        </DataArray>
      </Points>
      <Cells>
        <DataArray type="Int32" Name="connectivity" format="ascii">
0 1 5 4
4 5 9 8
8 9 13 12
1 2 6 5
5 6 10 9
9 10 14 13
2 3 7 6
6 7 11 10
10 11 15 14

        </DataArray>
        <DataArray type="Int32" Name="offsets" format="ascii">
4 8 12 16 20 24 28 32 36 
        </DataArray>
        <DataArray type="UInt8" Name="types" format="ascii">
9 9 9 9 9 9 9 9 9 
        </DataArray>
      </Cells>
      <PointData>
        <DataArray type="Float64" Name="u">
          0.00000000e+00 5.73227812e+01 7.26880233e+01 1.00308102e+02 1.02850903e+02 1.13456061e+02 1.28281016e+02 1.43534316e+02 1.65960664e+02 1.67808686e+02 1.75733321e+02 1.81822299e+02 2.06736480e+02 2.03110883e+02 2.06996114e+02 2.04411694e+02 
        </DataArray>
        <DataArray type="Float64" Name="v">
          0.00000000e+00 -1.38300568e+00 -7.37396606e+00 -1.34429310e+01 -4.25255196e+00 -1.29871501e+01 -1.60119095e+01 -1.69274815e+01 -4.21625077e+00 -1.28872376e+01 -1.72997352e+01 -1.89876071e+01 -6.81204990e+00 -1.42161379e+01 -1.88561396e+01 -2.28911187e+01 
        </DataArray>
        <DataArray type="Float64" Name="p">
          -4.12112143e+03 -3.76193587e+03 -3.40275032e+03 -3.04356477e+03 -3.60497805e+03 -3.42880436e+03 -3.25263067e+03 -3.07645697e+03 -3.08883468e+03 -3.09567284e+03 -3.10251101e+03 -3.10934918e+03 -2.57269130e+03 -2.76254133e+03 -2.95239135e+03 -3.14224138e+03 
        </DataArray>
      </PointData>
    </Piece>
    <Piece NumberOfPoints="16" NumberOfCells="9">
      <Points>
        <DataArray type="Float64" NumberOfComponents="3" format="ascii">
          3.00000000e+00 4.00000000e+00 0.00000000e+00 
4.00000000e+00 4.00000000e+00 0.00000000e+00 
5.00000000e+00 4.00000000e+00 0.00000000e+00 
6.00000000e+00 4.00000000e+00 0.00000000e+00 
3.00000000e+00 4.33333349e+00 0.00000000e+00 
4.00000000e+00 4.33333349e+00 0.00000000e+00 
5.00000000e+00 4.33333349e+00 0.00000000e+00 
6.00000000e+00 4.33333349e+00 0.00000000e+00 
3.00000000e+00 4.66666651e+00 0.00000000e+00 
4.00000000e+00 4.66666651e+00 0.00000000e+00 
5.00000000e+00 4.66666651e+00 0.00000000e+00 
6.00000000e+00 4.66666651e+00 0.00000000e+00 
3.00000000e+00 5.00000000e+00 0.00000000e+00 
4.00000000e+00 5.00000000e+00 0.00000000e+00 
5.00000000e+00 5.00000000e+00 0.00000000e+00 
6.00000000e+00 5.00000000e+00 0.00000000e+00 

        </DataArray>
      </Points>
      <Cells>
        <DataArray type="Int32" Name="connectivity" format="ascii">
0 1 5 4
4 5 9 8
8 9 13 12
1 2 6 5
5 6 10 9
9 10 14 13
2 3 7 6
6 7 11 10
10 11 15 14

        </DataArray>
        <DataArray type="Int32" Name="offsets" format="ascii">
4 8 12 16 20 24 28 32 36 
        </DataArray>
        <DataArray type="UInt8" Name="types" format="ascii">
9 9 9 9 9 9 9 9 9 
        </DataArray>
      </Cells>
      <PointData>
        <DataArray type="Float64" Name="u">
          2.06736480e+02 2.03110883e+02 2.06996114e+02 2.04411694e+02 2.24141623e+02 2.18118579e+02 2.16395916e+02 2.08531281e+02 2.19233039e+02 2.10615285e+02 2.05019495e+02 1.92256627e+02 1.92500920e+02 1.82771758e+02 1.74651864e+02 1.59461394e+02 
        </DataArray>
        <DataArray type="Float64" Name="v">
          -6.81204990e+00 -1.42161379e+01 -1.88561396e+01 -2.28911187e+01 -6.88815943e+00 -1.17262271e+01 -1.71106994e+01 -2.22289612e+01 -7.02121761e+00 -1.13211033e+01 -1.52996489e+01 -2.00573559e+01 -5.91290232e+00 -6.78228553e+00 -1.07919551e+01 -1.59095189e+01 
        </DataArray>
        <DataArray type="Float64" Name="p">
          -2.42858015e+03 -2.64609309e+03 -2.86360602e+03 -3.08111896e+03 -2.09845879e+03 -2.28808950e+03 -2.47772022e+03 -2.66735093e+03 -1.76833742e+03 -1.93008592e+03 -2.09183441e+03 -2.25358291e+03 -1.43821605e+03 -1.57208233e+03 -1.70594861e+03 -1.83981489e+03 
        </DataArray>
      </PointData>
    </Piece>
    <Piece NumberOfPoints="16" NumberOfCells="9">
      <Points>
        <DataArray type="Float64" NumberOfComponents="3" format="ascii">
          3.00000000e+00 5.00000000e+00 0.00000000e+00 
4.00000000e+00 5.00000000e+00 0.00000000e+00 
5.00000000e+00 5.00000000e+00 0.00000000e+00 
6.00000000e+00 5.00000000e+00 0.00000000e+00 
3.00000000e+00 5.33333349e+00 0.00000000e+00 
4.00000000e+00 5.33333349e+00 0.00000000e+00 
5.00000000e+00 5.33333349e+00 0.00000000e+00 
6.00000000e+00 5.33333349e+00 0.00000000e+00 
3.00000000e+00 5.66666651e+00 0.00000000e+00 
4.00000000e+00 5.66666651e+00 0.00000000e+00 
5.00000000e+00 5.66666651e+00 0.00000000e+00 
6.00000000e+00 5.66666651e+00 0.00000000e+00 
3.00000000e+00 6.00000000e+00 0.00000000e+00 
4.00000000e+00 6.00000000e+00 0.00000000e+00 
5.00000000e+00 6.00000000e+00 0.00000000e+00 
6.00000000e+00 6.00000000e+00 0.00000000e+00 

        </DataArray>
      </Points>
      <Cells>
        <DataArray type="Int32" Name="connectivity" format="ascii">
0 1 5 4
4 5 9 8
8 9 13 12
1 2 6 5
5 6 10 9
9 10 14 13
2 3 7 6
6 7 11 10
10 11 15 14

        </DataArray>
        <DataArray type="Int32" Name="offsets" format="ascii">
4 8 12 16 20 24 28 32 36 
        </DataArray>
        <DataArray type="UInt8" Name="types" format="ascii">
9 9 9 9 9 9 9 9 9 
        </DataArray>
      </Cells>
      <PointData>
        <DataArray type="Float64" Name="u">
          1.92500920e+02 1.82771758e+02 1.74651864e+02 1.59461394e+02 1.45026699e+02 1.35571996e+02 1.27548830e+02 1.14526625e+02 7.66288066e+01 7.78350489e+01 7.41929712e+01 6.95864026e+01 0.00000000e+00 3.31686685e+01 3.20522756e+01 3.90858748e+01 
        </DataArray>
        <DataArray type="Float64" Name="v">
          -5.91290232e+00 -6.78228553e+00 -1.07919551e+01 -1.59095189e+01 -3.71899732e+00 -2.35643810e+00 -5.03016895e+00 -1.03763828e+01 -2.20965651e+00 -2.31544579e+00 -5.80276997e+00 -8.47007764e+00 0.00000000e+00 -6.73807397e+00 -5.11764859e+00 -3.45094644e+00 
        </DataArray>
        <DataArray type="Float64" Name="p">
          -1.50722517e+03 -1.56603171e+03 -1.62483826e+03 -1.68364480e+03 -1.63044063e+03 -1.58083075e+03 -1.53122086e+03 -1.48161098e+03 -1.75365609e+03 -1.59562978e+03 -1.43760347e+03 -1.27957716e+03 -1.87687156e+03 -1.61042882e+03 -1.34398607e+03 -1.07754333e+03 
        </DataArray>
      </PointData>
    </Piece>
    <Piece NumberOfPoints="16" NumberOfCells="9">
      <Points>
        <DataArray type="Float64" NumberOfComponents="3" format="ascii">
          3.00000000e+00 6.00000000e+00 0.00000000e+00 
4.00000000e+00 6.00000000e+00 0.00000000e+00 
5.00000000e+00 6.00000000e+00 0.00000000e+00 
6.00000000e+00 6.00000000e+00 0.00000000e+00 
3.00000000e+00 6.33333349e+00 0.00000000e+00 
4.00000000e+00 6.33333349e+00 0.00000000e+00 
5.00000000e+00 6.33333349e+00 0.00000000e+00 
6.00000000e+00 6.33333349e+00 0.00000000e+00 
3.00000000e+00 6.66666651e+00 0.00000000e+00 
4.00000000e+00 6.66666651e+00 0.00000000e+00 
5.00000000e+00 6.66666651e+00 0.00000000e+00 
6.00000000e+00 6.66666651e+00 0.00000000e+00 
3.00000000e+00 7.00000000e+00 0.00000000e+00 
4.00000000e+00 7.00000000e+00 0.00000000e+00 
5.00000000e+00 7.00000000e+00 0.00000000e+00 
6.00000000e+00 7.00000000e+00 0.00000000e+00 

        </DataArray>
      </Points>
      <Cells>
        <DataArray type="Int32" Name="connectivity" format="ascii">
0 1 5 4
4 5 9 8
8 9 13 12
1 2 6 5
5 6 10 9
9 10 14 13
2 3 7 6
6 7 11 10
10 11 15 14

        </DataArray>
        <DataArray type="Int32" Name="offsets" format="ascii">
4 8 12 16 20 24 28 32 36 
        </DataArray>
        <DataArray type="UInt8" Name="types" format="ascii">
9 9 9 9 9 9 9 9 9 
        </DataArray>
      </Cells>
      <PointData>
        <DataArray type="Float64" Name="u">
          0.00000000e+00 3.31686685e+01 3.20522756e+01 3.90858748e+01 0.00000000e+00 6.53174887e+00 9.16479766e+00 1.47663820e+01 0.00000000e+00 -2.84368435e+00 -2.19426272e+00 -7.82934191e-01 0.00000000e+00 -5.98478779e+00 -7.76844764e+00 -1.03920913e+01 
        </DataArray>
        <DataArray type="Float64" Name="v">
          0.00000000e+00 -6.73807397e+00 -5.11764859e+00 -3.45094644e+00 0.00000000e+00 -1.24827815e+01 -7.65389392e+00 -2.92960345e+00 0.00000000e+00 -1.34119690e+01 -7.73990702e+00 -3.35461782e+00 0.00000000e+00 -1.15760874e+01 -7.90853731e+00 -4.11228218e+00 
        </DataArray>
        <DataArray type="Float64" Name="p">
          -1.85411769e+03 -1.65659593e+03 -1.45907417e+03 -1.26155240e+03 -1.72773550e+03 -1.59026365e+03 -1.45279181e+03 -1.31531996e+03 -1.60135330e+03 -1.52393137e+03 -1.44650945e+03 -1.36908753e+03 -1.47497110e+03 -1.45759910e+03 -1.44022709e+03 -1.42285509e+03 
        </DataArray>
      </PointData>
    </Piece>
    <Piece NumberOfPoints="16" NumberOfCells="9">
      <Points>
        <DataArray type="Float64" NumberOfComponents="3" format="ascii">
          3.00000000e+00 7.00000000e+00 0.00000000e+00 
4.00000000e+00 7.00000000e+00 0.00000000e+00 
5.00000000e+00 7.00000000e+00 0.00000000e+00 
6.00000000e+00 7.00000000e+00 0.00000000e+00 
3.00000000e+00 7.33333349e+00 0.00000000e+00 
4.00000000e+00 7.33333349e+00 0.00000000e+00 
5.00000000e+00 7.33333349e+00 0.00000000e+00 
6.00000000e+00 7.33333349e+00 0.00000000e+00 
3.00000000e+00 7.66666651e+00 0.00000000e+00 
4.00000000e+00 7.66666651e+00 0.00000000e+00 
5.00000000e+00 7.66666651e+00 0.00000000e+00 
6.00000000e+00 7.66666651e+00 0.00000000e+00 
3.00000000e+00 8.00000000e+00 0.00000000e+00 
4.00000000e+00 8.00000000e+00 0.00000000e+00 
5.00000000e+00 8.00000000e+00 0.00000000e+00 
6.00000000e+00 8.00000000e+00 0.00000000e+00 

        </DataArray>
      </Points>
      <Cells>
        <DataArray type="Int32" Name="connectivity" format="ascii">
0 1 5 4
4 5 9 8
8 9 13 12
1 2 6 5
5 6 10 9
9 10 14 13
2 3 7 6
6 7 11 10
10 11 15 14

        </DataArray>
        <DataArray type="Int32" Name="offsets" format="ascii">
4 8 12 16 20 24 28 32 36 
        </DataArray>
        <DataArray type="UInt8" Name="types" format="ascii">
9 9 9 9 9 9 9 9 9 
        </DataArray>
      </Cells>
      <PointData>
        <DataArray type="Float64" Name="u">
          0.00000000e+00 -5.98478779e+00 -7.76844764e+00 -1.03920913e+01 0.00000000e+00 -6.89501771e+00 -1.04280101e+01 -1.49135241e+01 0.00000000e+00 -6.63588182e+00 -1.08463798e+01 -1.61515908e+01 0.00000000e+00 -5.68302934e+00 -9.64083646e+00 -1.48462432e+01 
        </DataArray>
        <DataArray type="Float64" Name="v">
          0.00000000e+00 -1.15760874e+01 -7.90853731e+00 -4.11228218e+00 0.00000000e+00 -8.91051886e+00 -6.53585298e+00 -3.77131628e+00 0.00000000e+00 -6.59588734e+00 -5.04763769e+00 -3.05558981e+00 0.00000000e+00 -3.87204474e+00 -3.16077054e+00 -1.98981744e+00 
        </DataArray>
        <DataArray type="Float64" Name="p">
          -1.48505998e+03 -1.44988431e+03 -1.41470863e+03 -1.37953295e+03 -1.44980200e+03 -1.42027164e+03 -1.39074127e+03 -1.36121090e+03 -1.41454402e+03 -1.39065896e+03 -1.36677391e+03 -1.34288885e+03 -1.37928604e+03 -1.36104629e+03 -1.34280654e+03 -1.32456680e+03 
        </DataArray>
      </PointData>
    </Piece>
    <Piece NumberOfPoints="16" NumberOfCells="9">
      <Points>
        <DataArray type="Float64" NumberOfComponents="3" format="ascii">
          3.00000000e+00 8.00000000e+00 0.00000000e+00 
4.00000000e+00 8.00000000e+00 0.00000000e+00 
5.00000000e+00 8.00000000e+00 0.00000000e+00 
6.00000000e+00 8.00000000e+00 0.00000000e+00 
3.00000000e+00 8.33333302e+00 0.00000000e+00 
4.00000000e+00 8.33333302e+00 0.00000000e+00 
5.00000000e+00 8.33333302e+00 0.00000000e+00 
6.00000000e+00 8.33333302e+00 0.00000000e+00 
3.00000000e+00 8.66666698e+00 0.00000000e+00 
4.00000000e+00 8.66666698e+00 0.00000000e+00 
5.00000000e+00 8.66666698e+00 0.00000000e+00 
6.00000000e+00 8.66666698e+00 0.00000000e+00 
3.00000000e+00 9.00000000e+00 0.00000000e+00 
4.00000000e+00 9.00000000e+00 0.00000000e+00 
5.00000000e+00 9.00000000e+00 0.00000000e+00 
6.00000000e+00 9.00000000e+00 0.00000000e+00 

        </DataArray>
      </Points>
      <Cells>
        <DataArray type="Int32" Name="connectivity" format="ascii">
0 1 5 4
4 5 9 8
8 9 13 12
1 2 6 5
5 6 10 9
9 10 14 13
2 3 7 6
6 7 11 10
10 11 15 14

        </DataArray>
        <DataArray type="Int32" Name="offsets" format="ascii">
4 8 12 16 20 24 28 32 36 
        </DataArray>
        <DataArray type="UInt8" Name="types" format="ascii">
9 9 9 9 9 9 9 9 9 
        </DataArray>
      </Cells>
      <PointData>
        <DataArray type="Float64" Name="u">
          0.00000000e+00 -5.68302934e+00 -9.64083646e+00 -1.48462432e+01 0.00000000e+00 -4.24608749e+00 -7.22760598e+00 -1.15775545e+01 0.00000000e+00 -2.35723001e+00 -3.91084335e+00 -6.56196112e+00 0.00000000e+00 0.00000000e+00 0.00000000e+00 0.00000000e+00 
        </DataArray>
        <DataArray type="Float64" Name="v">
          0.00000000e+00 -3.87204474e+00 -3.16077054e+00 -1.98981744e+00 0.00000000e+00 -1.74246396e+00 -1.50849262e+00 -9.17891022e-01 0.00000000e+00 -5.61894980e-01 -5.24923255e-01 -3.05797604e-01 0.00000000e+00 0.00000000e+00 0.00000000e+00 0.00000000e+00 
        </DataArray>
        <DataArray type="Float64" Name="p">
          -1.38584029e+03 -1.36504166e+03 -1.34424304e+03 -1.32344442e+03 -1.39295737e+03 -1.37156161e+03 -1.35016586e+03 -1.32877011e+03 -1.40007445e+03 -1.37808156e+03 -1.35608868e+03 -1.33409580e+03 -1.40719153e+03 -1.38460151e+03 -1.36201150e+03 -1.33942149e+03 
        </DataArray>
      </PointData>
    </Piece>
    <Piece NumberOfPoints="16" NumberOfCells="9">
      <Points>
        <DataArray type="Float64" NumberOfComponents="3" format="ascii">
          6.00000000e+00 0.00000000e+00 0.00000000e+00 
7.00000000e+00 0.00000000e+00 0.00000000e+00 
8.00000000e+00 0.00000000e+00 0.00000000e+00 
9.00000000e+00 0.00000000e+00 0.00000000e+00 
6.00000000e+00 3.33333343e-01 0.00000000e+00 
7.00000000e+00 3.33333343e-01 0.00000000e+00 
8.00000000e+00 3.33333343e-01 0.00000000e+00 
9.00000000e+00 3.33333343e-01 0.00000000e+00 
6.00000000e+00 6.66666687e-01 0.00000000e+00 
7.00000000e+00 6.66666687e-01 0.00000000e+00 
8.00000000e+00 6.66666687e-01 0.00000000e+00 
9.00000000e+00 6.66666687e-01 0.00000000e+00 
6.00000000e+00 1.00000000e+00 0.00000000e+00 
7.00000000e+00 1.00000000e+00 0.00000000e+00 
8.00000000e+00 1.00000000e+00 0.00000000e+00 
9.00000000e+00 1.00000000e+00 0.00000000e+00 

        </DataArray>
      </Points>
      <Cells>
        <DataArray type="Int32" Name="connectivity" format="ascii">
0 1 5 4
4 5 9 8
8 9 13 12
1 2 6 5
5 6 10 9
9 10 14 13
2 3 7 6
6 7 11 10
10 11 15 14

        </DataArray>
        <DataArray type="Int32" Name="offsets" format="ascii">
4 8 12 16 20 24 28 32 36 
        </DataArray>
        <DataArray type="UInt8" Name="types" format="ascii">
9 9 9 9 9 9 9 9 9 
        </DataArray>
      </Cells>
      <PointData>
        <DataArray type="Float64" Name="u">