<?xml version="1.0"?>
<VTKFile type="UnstructuredGrid" version="0.1" byte_order="LittleEndian">
  <UnstructuredGrid>
    <Piece NumberOfPoints="16" NumberOfCells="9">
      <Points>
        <DataArray type="Float64" NumberOfComponents="3" format="ascii">
          0.00000000e+00 3.00000000e+00 0.00000000e+00 
8.33333313e-01 3.00000000e+00 0.00000000e+00 
1.66666663e+00 3.00000000e+00 0.00000000e+00 
2.50000000e+00 3.00000000e+00 0.00000000e+00 
0.00000000e+00 3.33333325e+00 0.00000000e+00 
8.33333313e-01 3.33333325e+00 0.00000000e+00 
1.66666663e+00 3.33333325e+00 0.00000000e+00 
2.50000000e+00 3.33333325e+00 0.00000000e+00 
0.00000000e+00 3.66666675e+00 0.00000000e+00 
8.33333313e-01 3.66666675e+00 0.00000000e+00 
1.66666663e+00 3.66666675e+00 0.00000000e+00 
2.50000000e+00 3.66666675e+00 0.00000000e+00 
0.00000000e+00 4.00000000e+00 0.00000000e+00 
8.33333313e-01 4.00000000e+00 0.00000000e+00 
1.66666663e+00 4.00000000e+00 0.00000000e+00 
2.50000000e+00 4.00000000e+00 0.00000000e+00 

        </DataArray>
      </Points>
      <Cells>
        <DataArray type="Int32" Name="connectivity" format="ascii">
0 1 5 4
4 5 9 8
8 9 13 12
1 2 6 5
5 6 10 9
9 10 14 13
2 3 7 6
6 7 11 10
10 11 15 14

        </DataArray>
        <DataArray type="Int32" Name="offsets" format="ascii">
4 8 12 16 20 24 28 32 36 
        </DataArray>
        <DataArray type="UInt8" Name="types" format="ascii">
9 9 9 9 9 9 9 9 9 
        </DataArray>
      </Cells>
      <PointData>
        <DataArray type="Float64" Name="u">
          0.00000000e+00 0.00000000e+00 0.00000000e+00 0.00000000e+00 8.88888889e+01 8.94676775e+01 8.94953325e+01 9.10537563e+01 1.55555556e+02 1.55372782e+02 1.56255877e+02 1.55821236e+02 2.00000000e+02 1.98993170e+02 2.00358674e+02 1.98771369e+02 
        </DataArray>
        <DataArray type="Float64" Name="v">
          0.00000000e+00 0.00000000e+00 0.00000000e+00 0.00000000e+00 0.00000000e+00 -2.42877451e-01 -3.92337637e-02 -1.67878947e+00 0.00000000e+00 -2.11892033e-01 -2.38315885e-01 -8.53208924e-01 0.00000000e+00 -3.00948685e-01 -2.34601188e-01 -8.18555225e-01 
        </DataArray>
        <DataArray type="Float64" Name="p">
          -2.07240897e+03 -3.46465859e+03 -4.85690822e+03 -6.24915784e+03 -2.08236007e+03 -3.46196031e+03 -4.84156055e+03 -6.22116079e+03 -2.09231118e+03 -3.45926203e+03 -4.82621289e+03 -6.19316374e+03 -2.10226228e+03 -3.45656375e+03 -4.81086522e+03 -6.16516669e+03 
        </DataArray>
      </PointData>
    </Piece>
    <Piece NumberOfPoints="16" NumberOfCells="9">
      <Points>
        <DataArray type="Float64" NumberOfComponents="3" format="ascii">
          0.00000000e+00 4.00000000e+00 0.00000000e+00 
8.33333313e-01 4.00000000e+00 0.00000000e+00 
1.66666663e+00 4.00000000e+00 0.00000000e+00 
2.50000000e+00 4.00000000e+00 0.00000000e+00 
0.00000000e+00 4.33333349e+00 0.00000000e+00 
8.33333313e-01 4.33333349e+00 0.00000000e+00 
1.66666663e+00 4.33333349e+00 0.00000000e+00 
2.50000000e+00 4.33333349e+00 0.00000000e+00 
0.00000000e+00 4.66666651e+00 0.00000000e+00 
8.33333313e-01 4.66666651e+00 0.00000000e+00 
1.66666663e+00 4.66666651e+00 0.00000000e+00 
2.50000000e+00 4.66666651e+00 0.00000000e+00 
0.00000000e+00 5.00000000e+00 0.00000000e+00 
8.33333313e-01 5.00000000e+00 0.00000000e+00 
1.66666663e+00 5.00000000e+00 0.00000000e+00 
2.50000000e+00 5.00000000e+00 0.00000000e+00 

        </DataArray>
      </Points>
      <Cells>
        <DataArray type="Int32" Name="connectivity" format="ascii">
0 1 5 4
4 5 9 8
8 9 13 12
1 2 6 5
5 6 10 9
9 10 14 13
2 3 7 6
6 7 11 10
10 11 15 14

        </DataArray>
        <DataArray type="Int32" Name="offsets" format="ascii">
4 8 12 16 20 24 28 32 36 
        </DataArray>
        <DataArray type="UInt8" Name="types" format="ascii">
9 9 9 9 9 9 9 9 9 
        </DataArray>
      </Cells>
      <PointData>
        <DataArray type="Float64" Name="u">
          2.00000000e+02 1.98993170e+02 2.00358674e+02 1.98771369e+02 2.22222222e+02 2.20972605e+02 2.22201164e+02 2.20610762e+02 2.22222222e+02 2.20972605e+02 2.22201164e+02 2.20610762e+02 2.00000000e+02 1.98993170e+02 2.00358674e+02 1.98771369e+02 
        </DataArray>
        <DataArray type="Float64" Name="v">
          0.00000000e+00 -3.00948685e-01 -2.34601188e-01 -8.18555225e-01 0.00000000e+00 -1.28455270e-02 -1.01532374e-01 3.78368191e-02 0.00000000e+00 1.28454997e-02 1.01532322e-01 -3.78368967e-02 0.00000000e+00 3.00948663e-01 2.34601144e-01 8.18555155e-01 
        </DataArray>
        <DataArray type="Float64" Name="p">
          -2.08116720e+03 -3.44274960e+03 -4.80433201e+03 -6.16591442e+03 -2.08116720e+03 -3.44274960e+03 -4.80433201e+03 -6.16591442e+03 -2.08116720e+03 -3.44274960e+03 -4.80433201e+03 -6.16591441e+03 -2.08116720e+03 -3.44274960e+03 -4.80433201e+03 -6.16591441e+03 
        </DataArray>
      </PointData>
    </Piece>
    <Piece NumberOfPoints="16" NumberOfCells="9">
      <Points>
        <DataArray type="Float64" NumberOfComponents="3" format="ascii">
          0.00000000e+00 5.00000000e+00 0.00000000e+00 
8.33333313e-01 5.00000000e+00 0.00000000e+00 
1.66666663e+00 5.00000000e+00 0.00000000e+00 
2.50000000e+00 5.00000000e+00 0.00000000e+00 
0.00000000e+00 5.33333349e+00 0.00000000e+00 
8.33333313e-01 5.33333349e+00 0.00000000e+00 
1.66666663e+00 5.33333349e+00 0.00000000e+00 
2.50000000e+00 5.33333349e+00 0.00000000e+00 
0.00000000e+00 5.66666651e+00 0.00000000e+00 
8.33333313e-01 5.66666651e+00 0.00000000e+00 
1.66666663e+00 5.66666651e+00 0.00000000e+00 
2.50000000e+00 5.66666651e+00 0.00000000e+00 
0.00000000e+00 6.00000000e+00 0.00000000e+00 
8.33333313e-01 6.00000000e+00 0.00000000e+00 
1.66666663e+00 6.00000000e+00 0.00000000e+00 
2.50000000e+00 6.00000000e+00 0.00000000e+00 

        </DataArray>
      </Points>
      <Cells>
        <DataArray type="Int32" Name="connectivity" format="ascii">
0 1 5 4
4 5 9 8
8 9 13 12
1 2 6 5
5 6 10 9
9 10 14 13
2 3 7 6
6 7 11 10
10 11 15 14

        </DataArray>
        <DataArray type="Int32" Name="offsets" format="ascii">
4 8 12 16 20 24 28 32 36 
        </DataArray>
        <DataArray type="UInt8" Name="types" format="ascii">
9 9 9 9 9 9 9 9 9 
        </DataArray>
      </Cells>
      <PointData>
        <DataArray type="Float64" Name="u">
          2.00000000e+02 1.98993170e+02 2.00358674e+02 1.98771369e+02 1.55555556e+02 1.55372782e+02 1.56255877e+02 1.55821236e+02 8.88888889e+01 8.94676774e+01 8.94953325e+01 9.10537562e+01 0.00000000e+00 0.00000000e+00 0.00000000e+00 0.00000000e+00 
        </DataArray>
        <DataArray type="Float64" Name="v">
          0.00000000e+00 3.00948663e-01 2.34601144e-01 8.18555155e-01 0.00000000e+00 2.11892024e-01 2.38315861e-01 8.53208881e-01 0.00000000e+00 2.42877441e-01 3.92337458e-02 1.67878943e+00 0.00000000e+00 0.00000000e+00 0.00000000e+00 0.00000000e+00 
        </DataArray>
        <DataArray type="Float64" Name="p">
          -2.10226228e+03 -3.45656375e+03 -4.81086522e+03 -6.16516669e+03 -2.09231117e+03 -3.45926203e+03 -4.82621288e+03 -6.19316374e+03 -2.08236007e+03 -3.46196031e+03 -4.84156055e+03 -6.22116078e+03 -2.07240896e+03 -3.46465859e+03 -4.85690821e+03 -6.24915783e+03 
        </DataArray>
      </PointData>
    </Piece>
    <Piece NumberOfPoints="16" NumberOfCells="9">
      <Points>
        <DataArray type="Float64" NumberOfComponents="3" format="ascii">
          2.50000000e+00 0.00000000e+00 0.00000000e+00 
3.33333325e+00 0.00000000e+00 0.00000000e+00 
4.16666651e+00 0.00000000e+00 0.00000000e+00 
5.00000000e+00 0.00000000e+00 0.00000000e+00 
2.50000000e+00 3.33333343e-01 0.00000000e+00 
3.33333325e+00 3.33333343e-01 0.00000000e+00 
4.16666651e+00 3.33333343e-01 0.00000000e+00 
5.00000000e+00 3.33333343e-01 0.00000000e+00 
2.50000000e+00 6.66666687e-01 0.00000000e+00 
3.33333325e+00 6.66666687e-01 0.00000000e+00 
4.16666651e+00 6.66666687e-01 0.00000000e+00 
5.00000000e+00 6.66666687e-01 0.00000000e+00 
2.50000000e+00 1.00000000e+00 0.00000000e+00 
3.33333325e+00 1.00000000e+00 0.00000000e+00 
4.16666651e+00 1.00000000e+00 0.00000000e+00 
5.00000000e+00 1.00000000e+00 0.00000000e+00 

        </DataArray>
      </Points>
      <Cells>
        <DataArray type="Int32" Name="connectivity" format="ascii">
0 1 5 4
4 5 9 8
8 9 13 12
1 2 6 5
5 6 10 9
9 10 14 13
2 3 7 6
6 7 11 10
10 11 15 14

        </DataArray>
        <DataArray type="Int32" Name="offsets" format="ascii">
4 8 12 16 20 24 28 32 36 
        </DataArray>
        <DataArray type="UInt8" Name="types" format="ascii">
9 9 9 9 9 9 9 9 9 
        </DataArray>
      </Cells>
      <PointData>
        <DataArray type="Float64" Name="u">
          0.00000000e+00 0.00000000e+00 0.00000000e+00 0.00000000e+00 0.00000000e+00 -3.01207336e+00 -5.08254759e+00 -9.13541394e+00 0.00000000e+00 -5.24562213e+00 -9.08563547e+00 -1.53744265e+01 0.00000000e+00 -6.72938178e+00 -1.15033515e+01 -1.83970063e+01 
        </DataArray>
        <DataArray type="Float64" Name="v">
          0.00000000e+00 0.00000000e+00 0.00000000e+00 0.00000000e+00 0.00000000e+00 8.84166683e-01 9.48798996e-01 6.55181402e-01 0.00000000e+00 2.61488196e+00 2.61412898e+00 1.74477415e+00 0.00000000e+00 5.72395039e+00 5.36116401e+00 3.51526780e+00 
        </DataArray>
        <DataArray type="Float64" Name="p">
          -5.83571751e+03 -5.78641351e+03 -5.73710952e+03 -5.68780552e+03 -5.82239931e+03 -5.77297706e+03 -5.72355481e+03 -5.67413256e+03 -5.80908111e+03 -5.75954060e+03 -5.71000010e+03 -5.66045960e+03 -5.79576290e+03 -5.74610415e+03 -5.69644540e+03 -5.64678664e+03 
        </DataArray>
      </PointData>
    </Piece>
    <Piece NumberOfPoints="16" NumberOfCells="9">
      <Points>
        <DataArray type="Float64" NumberOfComponents="3" format="ascii">
          2.50000000e+00 1.00000000e+00 0.00000000e+00 
3.33333325e+00 1.00000000e+00 0.00000000e+00 
4.16666651e+00 1.00000000e+00 0.00000000e+00 
5.00000000e+00 1.00000000e+00 0.00000000e+00 
2.50000000e+00 1.33333337e+00 0.00000000e+00 
3.33333325e+00 1.33333337e+00 0.00000000e+00 
4.16666651e+00 1.33333337e+00 0.00000000e+00 
5.00000000e+00 1.33333337e+00 0.00000000e+00 
2.50000000e+00 1.66666663e+00 0.00000000e+00 
3.33333325e+00 1.66666663e+00 0.00000000e+00 
4.16666651e+00 1.66666663e+00 0.00000000e+00 
5.00000000e+00 1.66666663e+00 0.00000000e+00 
2.50000000e+00 2.00000000e+00 0.00000000e+00 
3.33333325e+00 2.00000000e+00 0.00000000e+00 
4.16666651e+00 2.00000000e+00 0.00000000e+00 
5.00000000e+00 2.00000000e+00 0.00000000e+00 

        </DataArray>
      </Points>
      <Cells>
        <DataArray type="Int32" Name="connectivity" format="ascii">
0 1 5 4
4 5 9 8
8 9 13 12
1 2 6 5
5 6 10 9
9 10 14 13
2 3 7 6
6 7 11 10
10 11 15 14

        </DataArray>
        <DataArray type="Int32" Name="offsets" format="ascii">
4 8 12 16 20 24 28 32 36 
        </DataArray>
        <DataArray type="UInt8" Name="types" format="ascii">
9 9 9 9 9 9 9 9 9 
        </DataArray>
      </Cells>
      <PointData>
        <DataArray type="Float64" Name="u">
          0.00000000e+00 -6.72938178e+00 -1.15033515e+01 -1.83970063e+01 0.00000000e+00 -7.45702112e+00 -1.19744177e+01 -1.80023693e+01 0.00000000e+00 -7.18554432e+00 -1.00544976e+01 -1.35708943e+01 0.00000000e+00 -5.34110783e+00 -5.02811422e+00 -4.38664080e+00 
        </DataArray>
        <DataArray type="Float64" Name="v">
          0.00000000e+00 5.72395039e+00 5.36116401e+00 3.51526780e+00 0.00000000e+00 9.47197403e+00 8.15595409e+00 4.85274961e+00 0.00000000e+00 1.23568357e+01 1.00667056e+01 5.26926509e+00 0.00000000e+00 1.53491594e+01 1.11129814e+01 4.38556367e+00 
        </DataArray>
        <DataArray type="Float64" Name="p">
          -5.78021497e+03 -5.73983926e+03 -5.69946355e+03 -5.65908784e+03 -5.87264794e+03 -5.81716804e+03 -5.76168814e+03 -5.70620824e+03 -5.96508091e+03 -5.89449682e+03 -5.82391273e+03 -5.75332864e+03 -6.05751388e+03 -5.97182560e+03 -5.88613732e+03 -5.80044904e+03 
        </DataArray>
      </PointData>
    </Piece>
    <Piece NumberOfPoints="16" NumberOfCells="9">
      <Points>
        <DataArray type="Float64" NumberOfComponents="3" format="ascii">
          2.50000000e+00 2.00000000e+00 0.00000000e+00 
3.33333325e+00 2.00000000e+00 0.00000000e+00 
4.16666651e+00 2.00000000e+00 0.00000000e+00 
5.00000000e+00 2.00000000e+00 0.00000000e+00 
2.50000000e+00 2.33333325e+00 0.00000000e+00 
3.33333325e+00 2.33333325e+00 0.00000000e+00 
4.16666651e+00 2.33333325e+00 0.00000000e+00 
5.00000000e+00 2.33333325e+00 0.00000000e+00 
2.50000000e+00 2.66666675e+00 0.00000000e+00 
3.33333325e+00 2.66666675e+00 0.00000000e+00 
4.16666651e+00 2.66666675e+00 0.00000000e+00 
5.00000000e+00 2.66666675e+00 0.00000000e+00 
2.50000000e+00 3.00000000e+00 0.00000000e+00 
3.33333325e+00 3.00000000e+00 0.00000000e+00 
4.16666651e+00 3.00000000e+00 0.00000000e+00 
5.00000000e+00 3.00000000e+00 0.00000000e+00 

        </DataArray>
      </Points>
      <Cells>
        <DataArray type="Int32" Name="connectivity" format="ascii">
0 1 5 4
4 5 9 8
8 9 13 12
1 2 6 5
5 6 10 9
9 10 14 13
2 3 7 6
6 7 11 10
10 11 15 14

        </DataArray>
        <DataArray type="Int32" Name="offsets" format="ascii">
4 8 12 16 20 24 28 32 36 
        </DataArray>
        <DataArray type="UInt8" Name="types" format="ascii">
9 9 9 9 9 9 9 9 9 
        </DataArray>
      </Cells>
      <PointData>
        <DataArray type="Float64" Name="u">
          0.00000000e+00 -5.34110783e+00 -5.02811422e+00 -4.38664080e+00 0.00000000e+00 -6.82863044e-01 3.78859545e+00 1.19045632e+01 0.00000000e+00 1.23717143e+01 2.07247785e+01 3.55106854e+01 0.00000000e+00 4.64865434e+01 5.20174340e+01 6.91096690e+01 
        </DataArray>
        <DataArray type="Float64" Name="v">
          0.00000000e+00 1.53491594e+01 1.11129814e+01 4.38556367e+00 0.00000000e+00 1.68082722e+01 9.12821241e+00 1.19753533e+00 0.00000000e+00 1.33384636e+01 6.18873896e+00 -1.42503345e+00 0.00000000e+00 2.11766220e+00 -6.78640196e-01 -3.33258936e+00 
        </DataArray>
        <DataArray type="Float64" Name="p">
          -6.02017469e+03 -5.98253533e+03 -5.94489597e+03 -5.90725662e+03 -6.35347500e+03 -6.14756086e+03 -5.94164672e+03 -5.73573258e+03 -6.68677531e+03 -6.31258639e+03 -5.93839747e+03 -5.56420855e+03 -7.02007562e+03 -6.47761192e+03 -5.93514822e+03 -5.39268452e+03 
        </DataArray>
      </PointData>
    </Piece>
    <Piece NumberOfPoints="16" NumberOfCells="9">
      <Points>
        <DataArray type="Float64" NumberOfComponents="3" format="ascii">
          2.50000000e+00 3.00000000e+00 0.00000000e+00 
3.33333325e+00 3.00000000e+00 0.00000000e+00 
4.16666651e+00 3.00000000e+00 0.00000000e+00 
5.00000000e+00 3.00000000e+00 0.00000000e+00 
2.50000000e+00 3.33333325e+00 0.00000000e+00 
3.33333325e+00 3.33333325e+00 0.00000000e+00 
4.16666651e+00 3.33333325e+00 0.00000000e+00 
5.00000000e+00 3.33333325e+00 0.00000000e+00 
2.50000000e+00 3.66666675e+00 0.00000000e+00 
3.33333325e+00 3.66666675e+00 0.00000000e+00 
4.16666651e+00 3.66666675e+00 0.00000000e+00 
5.00000000e+00 3.66666675e+00 0.00000000e+00 
2.50000000e+00 4.00000000e+00 0.00000000e+00 
3.33333325e+00 4.00000000e+00 0.00000000e+00 
4.16666651e+00 4.00000000e+00 0.00000000e+00 
5.00000000e+00 4.00000000e+00 0.00000000e+00 

        </DataArray>
      </Points>
      <Cells>
        <DataArray type="Int32" Name="connectivity" format="ascii">
0 1 5 4
4 5 9 8
8 9 13 12
1 2 6 5
5 6 10 9
9 10 14 13
2 3 7 6
6 7 11 10
10 11 15 14

        </DataArray>
        <DataArray type="Int32" Name="offsets" format="ascii">
4 8 12 16 20 24 28 32 36 
        </DataArray>
        <DataArray type="UInt8" Name="types" format="ascii">
9 9 9 9 9 9 9 9 9 
        </DataArray>
      </Cells>
      <PointData>
        <DataArray type="Float64" Name="u">
          0.00000000e+00 4.64865434e+01 5.20174340e+01 6.91096690e+01 9.10537563e+01 9.59977843e+01 1.00542637e+02 1.06142818e+02 1.55821236e+02 1.51273072e+02 1.51125632e+02 1.48399574e+02 1.98771369e+02 1.91673737e+02 1.90320291e+02 1.82614385e+02 
        </DataArray>
        <DataArray type="Float64" Name="v">
          0.00000000e+00 2.11766220e+00 -6.78640196e-01 -3.33258936e+00 -1.67878947e+00 -6.58264522e+00 -5.03321225e+00 -2.36375253e+00 -8.53208924e-01 -6.87750205e+00 -6.67815638e+00 -2.96173094e+00 -8.18555225e-01 -4.49058984e+00 -4.22085365e+00 -2.44459090e+00 
        </DataArray>
        <DataArray type="Float64" Name="p">
          -7.08576105e+03 -6.44962433e+03 -5.81348760e+03 -5.17735087e+03 -6.59211817e+03 -6.21276935e+03 -5.83342052e+03 -5.45407170e+03 -6.09847528e+03 -5.97591437e+03 -5.85335345e+03 -5.73079254e+03 -5.60483239e+03 -5.73905939e+03 -5.87328638e+03 -6.00751337e+03 
        </DataArray>
      </PointData>
    </Piece>
    <Piece NumberOfPoints="16" NumberOfCells="9">
      <Points>
        <DataArray type="Float64" NumberOfComponents="3" format="ascii">
          2.50000000e+00 4.00000000e+00 0.00000000e+00 
3.33333325e+00 4.00000000e+00 0.00000000e+00 
4.16666651e+00 4.00000000e+00 0.00000000e+00 
5.00000000e+00 4.00000000e+00 0.00000000e+00 
2.50000000e+00 4.33333349e+00 0.00000000e+00 
3.33333325e+00 4.33333349e+00 0.00000000e+00 
4.16666651e+00 4.33333349e+00 0.00000000e+00 
5.00000000e+00 4.33333349e+00 0.00000000e+00 
2.50000000e+00 4.66666651e+00 0.00000000e+00 
3.33333325e+00 4.66666651e+00 0.00000000e+00 
4.16666651e+00 4.66666651e+00 0.00000000e+00 
5.00000000e+00 4.66666651e+00 0.00000000e+00 
2.50000000e+00 5.00000000e+00 0.00000000e+00 
3.33333325e+00 5.00000000e+00 0.00000000e+00 
4.16666651e+00 5.00000000e+00 0.00000000e+00 
5.00000000e+00 5.00000000e+00 0.00000000e+00 

        </DataArray>
      </Points>
      <Cells>
        <DataArray type="Int32" Name="connectivity" format="ascii">
0 1 5 4
4 5 9 8
8 9 13 12
1 2 6 5
5 6 10 9
9 10 14 13
2 3 7 6
6 7 11 10
10 11 15 14

        </DataArray>
        <DataArray type="Int32" Name="offsets" format="ascii">
4 8 12 16 20 24 28 32 36 
        </DataArray>
        <DataArray type="UInt8" Name="types" format="ascii">
9 9 9 9 9 9 9 9 9 
        </DataArray>
      </Cells>
      <PointData>
        <DataArray type="Float64" Name="u">
          1.98771369e+02 1.91673737e+02 1.90320291e+02 1.82614385e+02 2.20610762e+02 2.12577803e+02 2.10114173e+02 2.01498527e+02 2.20610762e+02 2.12577803e+02 2.10114173e+02 2.01498527e+02 1.98771369e+02 1.91673737e+02 1.90320291e+02 1.82614385e+02 
        </DataArray>
        <DataArray type="Float64" Name="v">
          -8.18555225e-01 -4.49058984e+00 -4.22085365e+00 -2.44459090e+00 3.78368191e-02 -5.38416418e-01 -1.25085355e+00 -1.16447018e+00 -3.78368967e-02 5.38416300e-01 1.25085338e+00 1.16446997e+00 8.18555155e-01 4.49058973e+00 4.22085350e+00 2.44459070e+00 
        </DataArray>
        <DataArray type="Float64" Name="p">
          -5.43873072e+03 -5.66058991e+03 -5.88244909e+03 -6.10430827e+03 -5.43873072e+03 -5.66058990e+03 -5.88244909e+03 -6.10430827e+03 -5.43873072e+03 -5.66058990e+03 -5.88244909e+03 -6.10430827e+03 -5.43873072e+03 -5.66058990e+03 -5.88244908e+03 -6.10430827e+03 
        </DataArray>
      </PointData>
    </Piece>
    <Piece NumberOfPoints="16" NumberOfCells="9">
      <Points>
        <DataArray type="Float64" NumberOfComponents="3" format="ascii">
          2.50000000e+00 5.00000000e+00 0.00000000e+00 
3.33333325e+00 5.00000000e+00 0.00000000e+00 
4.16666651e+00 5.00000000e+00 0.00000000e+00 
5.00000000e+00 5.00000000e+00 0.00000000e+00 
2.50000000e+00 5.33333349e+00 0.00000000e+00 
3.33333325e+00 5.33333349e+00 0.00000000e+00 
4.16666651e+00 5.33333349e+00 0.00000000e+00 
5.00000000e+00 5.33333349e+00 0.00000000e+00 
2.50000000e+00 5.66666651e+00 0.00000000e+00 
3.33333325e+00 5.66666651e+00 0.00000000e+00 
4.16666651e+00 5.66666651e+00 0.00000000e+00 
5.00000000e+00 5.66666651e+00 0.00000000e+00 
2.50000000e+00 6.00000000e+00 0.00000000e+00 
3.33333325e+00 6.00000000e+00 0.00000000e+00 
4.16666651e+00 6.00000000e+00 0.00000000e+00 
5.00000000e+00 6.00000000e+00 0.00000000e+00 

        </DataArray>
      </Points>
      <Cells>
        <DataArray type="Int32" Name="connectivity" format="ascii">
0 1 5 4
4 5 9 8
8 9 13 12
1 2 6 5
5 6 10 9
9 10 14 13
2 3 7 6
6 7 11 10
10 11 15 14

        </DataArray>
        <DataArray type="Int32" Name="offsets" format="ascii">
4 8 12 16 20 24 28 32 36 
        </DataArray>
        <DataArray type="UInt8" Name="types" format="ascii">
9 9 9 9 9 9 9 9 9 
        </DataArray>
      </Cells>
      <PointData>
        <DataArray type="Float64" Name="u">
          1.98771369e+02 1.91673737e+02 1.90320291e+02 1.82614385e+02 1.55821236e+02 1.51273072e+02 1.51125632e+02 1.48399574e+02 9.10537562e+01 9.59977842e+01 1.00542637e+02 1.06142817e+02 0.00000000e+00 4.64865433e+01 5.20174338e+01 6.91096687e+01 
        </DataArray>
        <DataArray type="Float64" Name="v">
          8.18555155e-01 4.49058973e+00 4.22085350e+00 2.44459070e+00 8.53208881e-01 6.87750196e+00 6.67815626e+00 2.96173078e+00 1.67878943e+00 6.58264514e+00 5.03321214e+00 2.36375239e+00 0.00000000e+00 -2.11766225e+00 6.78640122e-01 3.33258926e+00 
        </DataArray>
        <DataArray type="Float64" Name="p">
          -5.60483239e+03 -5.73905938e+03 -5.87328637e+03 -6.00751336e+03 -6.09847527e+03 -5.97591436e+03 -5.85335344e+03 -5.73079253e+03 -6.59211816e+03 -6.21276934e+03 -5.83342051e+03 -5.45407169e+03 -7.08576104e+03 -6.44962431e+03 -5.81348759e+03 -5.17735086e+03 
        </DataArray>
      </PointData>
    </Piece>
    <Piece NumberOfPoints="16" NumberOfCells="9">
      <Points>
        <DataArray type="Float64" NumberOfComponents="3" format="ascii">
          2.50000000e+00 6.00000000e+00 0.00000000e+00 
3.33333325e+00 6.00000000e+00 0.00000000e+00 
4.16666651e+00 6.00000000e+00 0.00000000e+00 
5.00000000e+00 6.00000000e+00 0.00000000e+00 
2.50000000e+00 6.33333349e+00 0.00000000e+00 
3.33333325e+00 6.33333349e+00 0.00000000e+00 
4.16666651e+00 6.33333349e+00 0.00000000e+00 
5.00000000e+00 6.33333349e+00 0.00000000e+00 
2.50000000e+00 6.66666651e+00 0.00000000e+00 
3.33333325e+00 6.66666651e+00 0.00000000e+00 
4.16666651e+00 6.66666651e+00 0.00000000e+00 
5.00000000e+00 6.66666651e+00 0.00000000e+00 
2.50000000e+00 7.00000000e+00 0.00000000e+00 
3.33333325e+00 7.00000000e+00 0.00000000e+00 
4.16666651e+00 7.00000000e+00 0.00000000e+00 
5.00000000e+00 7.00000000e+00 0.00000000e+00 

        </DataArray>
      </Points>
      <Cells>
        <DataArray type="Int32" Name="connectivity" format="ascii">
0 1 5 4
4 5 9 8
8 9 13 12
1 2 6 5
5 6 10 9
9 10 14 13
2 3 7 6
6 7 11 10
10 11 15 14

        </DataArray>
        <DataArray type="Int32" Name="offsets" format="ascii">
4 8 12 16 20 24 28 32 36 
        </DataArray>
        <DataArray type="UInt8" Name="types" format="ascii">
9 9 9 9 9 9 9 9 9 
        </DataArray>
      </Cells>
      <PointData>
        <DataArray type="Float64" Name="u">
          0.00000000e+00 4.64865433e+01 5.20174338e+01 6.91096687e+01 0.00000000e+00 1.23717142e+01 2.07247784e+01 3.55106852e+01 0.00000000e+00 -6.82863062e-01 3.78859540e+00 1.19045631e+01 0.00000000e+00 -5.34110784e+00 -5.02811426e+00 -4.38664087e+00 
        </DataArray>
        <DataArray type="Float64" Name="v">
          0.00000000e+00 -2.11766225e+00 6.78640122e-01 3.33258926e+00 0.00000000e+00 -1.33384636e+01 -6.18873900e+00 1.42503338e+00 0.00000000e+00 -1.68082722e+01 -9.12821243e+00 -1.19753538e+00 0.00000000e+00 -1.53491594e+01 -1.11129814e+01 -4.38556369e+00 
        </DataArray>
        <DataArray type="Float64" Name="p">
          -7.02007560e+03 -6.47761191e+03 -5.93514821e+03 -5.39268451e+03 -6.68677530e+03 -6.31258638e+03 -5.93839746e+03 -5.56420854e+03 -6.35347499e+03 -6.14756085e+03 -5.94164671e+03 -5.73573257e+03 -6.02017468e+03 -5.98253532e+03 -5.94489596e+03 -5.90725660e+03 
        </DataArray>
      </PointData>
    </Piece>
    <Piece NumberOfPoints="16" NumberOfCells="9">
      <Points>
        <DataArray type="Float64" NumberOfComponents="3" format="ascii">
          2.50000000e+00 7.00000000e+00 0.00000000e+00 
3.33333325e+00 7.00000000e+00 0.00000000e+00 
4.16666651e+00 7.00000000e+00 0.00000000e+00 
5.00000000e+00 7.00000000e+00 0.00000000e+00 
2.50000000e+00 7.33333349e+00 0.00000000e+00 
3.33333325e+00 7.33333349e+00 0.00000000e+00 
4.16666651e+00 7.33333349e+00 0.00000000e+00 
5.00000000e+00 7.33333349e+00 0.00000000e+00 
2.50000000e+00 7.66666651e+00 0.00000000e+00 
3.33333325e+00 7.66666651e+00 0.00000000e+00 
4.16666651e+00 7.66666651e+00 0.00000000e+00 
5.00000000e+00 7.66666651e+00 0.00000000e+00 
2.50000000e+00 8.00000000e+00 0.00000000e+00 
3.33333325e+00 8.00000000e+00 0.00000000e+00 
4.16666651e+00 8.00000000e+00 0.00000000e+00 
5.00000000e+00 8.00000000e+00 0.00000000e+00 

        </DataArray>
      </Points>
      <Cells>
        <DataArray type="Int32" Name="connectivity" format="ascii">
0 1 5 4
4 5 9 8
8 9 13 12
1 2 6 5
5 6 10 9
9 10 14 13
2 3 7 6
6 7 11 10
10 11 15 14

        </DataArray>
        <DataArray type="Int32" Name="offsets" format="ascii">
4 8 12 16 20 24 28 32 36 
        </DataArray>
        <DataArray type="UInt8" Name="types" format="ascii">
9 9 9 9 9 9 9 9 9 
        </DataArray>
      </Cells>
      <PointData>
        <DataArray type="Float64" Name="u">
          0.00000000e+00 -5.34110784e+00 -5.02811426e+00 -4.38664087e+00 0.00000000e+00 -7.18554431e+00 -1.00544976e+01 -1.35708944e+01 0.00000000e+00 -7.45702111e+00 -1.19744177e+01 -1.80023693e+01 0.00000000e+00 -6.72938177e+00 -1.15033515e+01 -1.83970063e+01 
        </DataArray>
        <DataArray type="Float64" Name="v">
          0.00000000e+00 -1.53491594e+01 -1.11129814e+01 -4.38556369e+00 0.00000000e+00 -1.23568357e+01 -1.00667055e+01 -5.26926510e+00 0.00000000e+00 -9.47197402e+00 -8.15595408e+00 -4.85274961e+00 0.00000000e+00 -5.72395038e+00 -5.36116400e+00 -3.51526780e+00 
        </DataArray>
        <DataArray type="Float64" Name="p">
          -6.05751386e+03 -5.97182559e+03 -5.88613731e+03 -5.80044903e+03 -5.96508090e+03 -5.89449681e+03 -5.82391272e+03 -5.75332863e+03 -5.87264793e+03 -5.81716803e+03 -5.76168813e+03 -5.70620823e+03 -5.78021496e+03 -5.73983925e+03 -5.69946354e+03 -5.65908783e+03 
        </DataArray>
      </PointData>
    </Piece>
    <Piece NumberOfPoints="16" NumberOfCells="9">
      <Points>
        <DataArray type="Float64" NumberOfComponents="3" format="ascii">
          2.50000000e+00 8.00000000e+00 0.00000000e+00 
3.33333325e+00 8.00000000e+00 0.00000000e+00 
4.16666651e+00 8.00000000e+00 0.00000000e+00 
5.00000000e+00 8.00000000e+00 0.00000000e+00 
2.50000000e+00 8.33333302e+00 0.00000000e+00 
3.33333325e+00 8.33333302e+00 0.00000000e+00 
4.16666651e+00 8.33333302e+00 0.00000000e+00 
5.00000000e+00 8.33333302e+00 0.00000000e+00 
2.50000000e+00 8.66666698e+00 0.00000000e+00 
3.33333325e+00 8.66666698e+00 0.00000000e+00 
4.16666651e+00 8.66666698e+00 0.00000000e+00 
5.00000000e+00 8.66666698e+00 0.00000000e+00 
2.50000000e+00 9.00000000e+00 0.00000000e+00 
3.33333325e+00 9.00000000e+00 0.00000000e+00 
4.16666651e+00 9.00000000e+00 0.00000000e+00 
5.00000000e+00 9.00000000e+00 0.00000000e+00 

        </DataArray>
      </Points>
      <Cells>
        <DataArray type="Int32" Name="connectivity" format="ascii">
0 1 5 4
4 5 9 8
8 9 13 12
1 2 6 5
5 6 10 9
9 10 14 13
2 3 7 6
6 7 11 10
10 11 15 14

        </DataArray>
        <DataArray type="Int32" Name="offsets" format="ascii">
4 8 12 16 20 24 28 32 36 
        </DataArray>
        <DataArray type="UInt8" Name="types" format="ascii">
9 9 9 9 9 9 9 9 9 
        </DataArray>
      </Cells>
      <PointData>
        <DataArray type="Float64" Name="u">
          0.00000000e+00 -6.72938177e+00 -1.15033515e+01 -1.83970063e+01 0.00000000e+00 -5.24562212e+00 -9.08563546e+00 -1.53744264e+01 0.00000000e+00 -3.01207335e+00 -5.08254758e+00 -9.13541392e+00 0.00000000e+00 0.00000000e+00 0.00000000e+00 0.00000000e+00 
        </DataArray>
        <DataArray type="Float64" Name="v">
          0.00000000e+00 -5.72395038e+00 -5.36116400e+00 -3.51526780e+00 0.00000000e+00 -2.61488195e+00 -2.61412898e+00 -1.74477415e+00 0.00000000e+00 -8.84166681e-01 -9.48798994e-01 -6.55181400e-01 0.00000000e+00 0.00000000e+00 0.00000000e+00 0.00000000e+00 
        </DataArray>
        <DataArray type="Float64" Name="p">
          -5.79576289e+03 -5.74610414e+03 -5.69644538e+03 -5.64678663e+03 -5.80908109e+03 -5.75954059e+03 -5.71000009e+03 -5.66045959e+03 -5.82239929e+03 -5.77297705e+03 -5.72355480e+03 -5.67413255e+03 -5.83571749e+03 -5.78641350e+03 -5.73710950e+03 -5.68780551e+03 
        </DataArray>
      </PointData>
    </Piece>
    <Piece NumberOfPoints="16" NumberOfCells="9">
      <Points>
        <DataArray type="Float64" NumberOfComponents="3" format="ascii">
          5.00000000e+00 0.00000000e+00 0.00000000e+00 
5.83333349e+00 0.00000000e+00 0.00000000e+00 
6.66666651e+00 0.00000000e+00 0.00000000e+00 
7.50000000e+00 0.00000000e+00 0.00000000e+00 
5.00000000e+00 3.33333343e-01 0.00000000e+00 
5.83333349e+00 3.33333343e-01 0.00000000e+00 
6.66666651e+00 3.33333343e-01 0.00000000e+00 
7.50000000e+00 3.33333343e-01 0.00000000e+00 
5.00000000e+00 6.66666687e-01 0.00000000e+00 
5.83333349e+00 6.66666687e-01 0.00000000e+00 
6.66666651e+00 6.66666687e-01 0.00000000e+00 
7.50000000e+00 6.66666687e-01 0.00000000e+00 
5.00000000e+00 1.00000000e+00 0.00000000e+00 
5.83333349e+00 1.00000000e+00 0.00000000e+00 
6.66666651e+00 1.00000000e+00 0.00000000e+00 
7.50000000e+00 1.00000000e+00 0.00000000e+00 

        </DataArray>
      </Points>
      <Cells>
        <DataArray type="Int32" Name="connectivity" format="ascii">
0 1 5 4
4 5 9 8
8 9 13 12
1 2 6 5
5 6 10 9
9 10 14 13
2 3 7 6
6 7 11 10
10 11 15 14

        </DataArray>
        <DataArray type="Int32" Name="offsets" format="ascii">
4 8 12 16 20 24 28 32 36 
        </DataArray>
        <DataArray type="UInt8" Name="types" format="ascii">
9 9 9 9 9 9 9 9 9 
        </DataArray>
      </Cells>
      <PointData>
        <DataArray type="Float64" Name="u">