<?xml version="1.0"?>
<VTKFile type="UnstructuredGrid" version="0.1" byte_order="LittleEndian">
  <UnstructuredGrid>
    <Piece NumberOfPoints="16" NumberOfCells="9">
      <Points>
        <DataArray type="Float64" NumberOfComponents="3" format="ascii">
          0.00000000e+00 3.00000000e+00 0.00000000e+00 
8.33333313e-01 3.00000000e+00 0.00000000e+00 
1.66666663e+00 3.00000000e+00 0.00000000e+00 
2.50000000e+00 3.00000000e+00 0.00000000e+00 
0.00000000e+00 3.33333325e+00 0.00000000e+00 
8.33333313e-01 3.33333325e+00 0.00000000e+00 
1.66666663e+00 3.33333325e+00 0.00000000e+00 
2.50000000e+00 3.33333325e+00 0.00000000e+00 
0.00000000e+00 3.66666675e+00 0.00000000e+00 
8.33333313e-01 3.66666675e+00 0.00000000e+00 
1.66666663e+00 3.66666675e+00 0.00000000e+00 
2.50000000e+00 3.66666675e+00 0.00000000e+00 
0.00000000e+00 4.00000000e+00 0.00000000e+00 
8.33333313e-01 4.00000000e+00 0.00000000e+00 
1.66666663e+00 4.00000000e+00 0.00000000e+00 
2.50000000e+00 4.00000000e+00 0.00000000e+00 

        </DataArray>
      </Points>
      <Cells>
        <DataArray type="Int32" Name="connectivity" format="ascii">
0 1 5 4
4 5 9 8
8 9 13 12
1 2 6 5
5 6 10 9
9 10 14 13
2 3 7 6
6 7 11 10
10 11 15 14

        </DataArray>
        <DataArray type="Int32" Name="offsets" format="ascii">
4 8 12 16 20 24 28 32 36 
        </DataArray>
        <DataArray type="UInt8" Name="types" format="ascii">
9 9 9 9 9 9 9 9 9 
        </DataArray>
      </Cells>
      <PointData>
        <DataArray type="Float64" Name="u">
          0.00000000e+00 0.00000000e+00 0.00000000e+00 0.00000000e+00 8.88888889e+01 8.94693558e+01 8.94993915e+01 9.10751309e+01 1.55555556e+02 1.55371178e+02 1.56262221e+02 1.55823585e+02 2.00000000e+02 1.98985839e+02 2.00363802e+02 1.98759342e+02 
        </DataArray>
        <DataArray type="Float64" Name="v">
          0.00000000e+00 0.00000000e+00 0.00000000e+00 0.00000000e+00 0.00000000e+00 -2.43254348e-01 -4.06394132e-02 -1.69573648e+00 0.00000000e+00 -2.13571160e-01 -2.39739675e-01 -8.68231565e-01 0.00000000e+00 -3.02723497e-01 -2.37788873e-01 -8.27325649e-01 
        </DataArray>
        <DataArray type="Float64" Name="p">
          -2.02714120e+03 -3.43043754e+03 -4.83373387e+03 -6.23703021e+03 -2.03732241e+03 -3.42772822e+03 -4.81813404e+03 -6.20853986e+03 -2.04750361e+03 -3.42501891e+03 -4.80253421e+03 -6.18004951e+03 -2.05768481e+03 -3.42230959e+03 -4.78693438e+03 -6.15155916e+03 
        </DataArray>
      </PointData>
    </Piece>
    <Piece NumberOfPoints="16" NumberOfCells="9">
      <Points>
        <DataArray type="Float64" NumberOfComponents="3" format="ascii">
          0.00000000e+00 4.00000000e+00 0.00000000e+00 
8.33333313e-01 4.00000000e+00 0.00000000e+00 
1.66666663e+00 4.00000000e+00 0.00000000e+00 
2.50000000e+00 4.00000000e+00 0.00000000e+00 
0.00000000e+00 4.33333349e+00 0.00000000e+00 
8.33333313e-01 4.33333349e+00 0.00000000e+00 
1.66666663e+00 4.33333349e+00 0.00000000e+00 
2.50000000e+00 4.33333349e+00 0.00000000e+00 
0.00000000e+00 4.66666651e+00 0.00000000e+00 
8.33333313e-01 4.66666651e+00 0.00000000e+00 
1.66666663e+00 4.66666651e+00 0.00000000e+00 
2.50000000e+00 4.66666651e+00 0.00000000e+00 
0.00000000e+00 5.00000000e+00 0.00000000e+00 
8.33333313e-01 5.00000000e+00 0.00000000e+00 
1.66666663e+00 5.00000000e+00 0.00000000e+00 
2.50000000e+00 5.00000000e+00 0.00000000e+00 

        </DataArray>
      </Points>
      <Cells>
        <DataArray type="Int32" Name="connectivity" format="ascii">
0 1 5 4
4 5 9 8
8 9 13 12
1 2 6 5
5 6 10 9
9 10 14 13
2 3 7 6
6 7 11 10
10 11 15 14

        </DataArray>
        <DataArray type="Int32" Name="offsets" format="ascii">
4 8 12 16 20 24 28 32 36 
        </DataArray>
        <DataArray type="UInt8" Name="types" format="ascii">
9 9 9 9 9 9 9 9 9 
        </DataArray>
      </Cells>
      <PointData>
        <DataArray type="Float64" Name="u">
          2.00000000e+02 1.98985839e+02 2.00363802e+02 1.98759342e+02 2.22222222e+02 2.20961864e+02 2.22202896e+02 2.20595056e+02 2.22222222e+02 2.20961864e+02 2.22202896e+02 2.20595056e+02 2.00000000e+02 1.98985839e+02 2.00363802e+02 1.98759342e+02 
        </DataArray>
        <DataArray type="Float64" Name="v">
          0.00000000e+00 -3.02723497e-01 -2.37788873e-01 -8.27325649e-01 0.00000000e+00 -1.33096682e-02 -1.02431907e-01 3.71685903e-02 0.00000000e+00 1.33096682e-02 1.02431907e-01 -3.71685903e-02 0.00000000e+00 3.02723497e-01 2.37788873e-01 8.27325649e-01 
        </DataArray>
        <DataArray type="Float64" Name="p">
          -2.03646159e+03 -3.40833824e+03 -4.78021488e+03 -6.15209152e+03 -2.03646159e+03 -3.40833824e+03 -4.78021488e+03 -6.15209152e+03 -2.03646159e+03 -3.40833824e+03 -4.78021488e+03 -6.15209152e+03 -2.03646159e+03 -3.40833824e+03 -4.78021488e+03 -6.15209152e+03 
        </DataArray>
      </PointData>
    </Piece>
    <Piece NumberOfPoints="16" NumberOfCells="9">
      <Points>
        <DataArray type="Float64" NumberOfComponents="3" format="ascii">
          0.00000000e+00 5.00000000e+00 0.00000000e+00 
8.33333313e-01 5.00000000e+00 0.00000000e+00 
1.66666663e+00 5.00000000e+00 0.00000000e+00 
2.50000000e+00 5.00000000e+00 0.00000000e+00 
0.00000000e+00 5.33333349e+00 0.00000000e+00 
8.33333313e-01 5.33333349e+00 0.00000000e+00 
1.66666663e+00 5.33333349e+00 0.00000000e+00 
2.50000000e+00 5.33333349e+00 0.00000000e+00 
0.00000000e+00 5.66666651e+00 0.00000000e+00 
8.33333313e-01 5.66666651e+00 0.00000000e+00 
1.66666663e+00 5.66666651e+00 0.00000000e+00 
2.50000000e+00 5.66666651e+00 0.00000000e+00 
0.00000000e+00 6.00000000e+00 0.00000000e+00 
8.33333313e-01 6.00000000e+00 0.00000000e+00 
1.66666663e+00 6.00000000e+00 0.00000000e+00 
2.50000000e+00 6.00000000e+00 0.00000000e+00 

        </DataArray>
      </Points>
      <Cells>
        <DataArray type="Int32" Name="connectivity" format="ascii">
0 1 5 4
4 5 9 8
8 9 13 12
1 2 6 5
5 6 10 9
9 10 14 13
2 3 7 6
6 7 11 10
10 11 15 14

        </DataArray>
        <DataArray type="Int32" Name="offsets" format="ascii">
4 8 12 16 20 24 28 32 36 
        </DataArray>
        <DataArray type="UInt8" Name="types" format="ascii">
9 9 9 9 9 9 9 9 9 
        </DataArray>
      </Cells>
      <PointData>
        <DataArray type="Float64" Name="u">
          2.00000000e+02 1.98985839e+02 2.00363802e+02 1.98759342e+02 1.55555556e+02 1.55371178e+02 1.56262221e+02 1.55823585e+02 8.88888889e+01 8.94693558e+01 8.94993915e+01 9.10751309e+01 0.00000000e+00 0.00000000e+00 0.00000000e+00 0.00000000e+00 
        </DataArray>
        <DataArray type="Float64" Name="v">
          0.00000000e+00 3.02723497e-01 2.37788873e-01 8.27325649e-01 0.00000000e+00 2.13571160e-01 2.39739675e-01 8.68231565e-01 0.00000000e+00 2.43254348e-01 4.06394132e-02 1.69573648e+00 0.00000000e+00 0.00000000e+00 0.00000000e+00 0.00000000e+00 
        </DataArray>
        <DataArray type="Float64" Name="p">
          -2.05768481e+03 -3.42230959e+03 -4.78693438e+03 -6.15155916e+03 -2.04750361e+03 -3.42501891e+03 -4.80253421e+03 -6.18004951e+03 -2.03732241e+03 -3.42772822e+03 -4.81813404e+03 -6.20853986e+03 -2.02714120e+03 -3.43043754e+03 -4.83373387e+03 -6.23703021e+03 
        </DataArray>
      </PointData>
    </Piece>
    <Piece NumberOfPoints="16" NumberOfCells="9">
      <Points>
        <DataArray type="Float64" NumberOfComponents="3" format="ascii">
          2.50000000e+00 0.00000000e+00 0.00000000e+00 
3.33333325e+00 0.00000000e+00 0.00000000e+00 
4.16666651e+00 0.00000000e+00 0.00000000e+00 
5.00000000e+00 0.00000000e+00 0.00000000e+00 
2.50000000e+00 3.33333343e-01 0.00000000e+00 
3.33333325e+00 3.33333343e-01 0.00000000e+00 
4.16666651e+00 3.33333343e-01 0.00000000e+00 
5.00000000e+00 3.33333343e-01 0.00000000e+00 
2.50000000e+00 6.66666687e-01 0.00000000e+00 
3.33333325e+00 6.66666687e-01 0.00000000e+00 
4.16666651e+00 6.66666687e-01 0.00000000e+00 
5.00000000e+00 6.66666687e-01 0.00000000e+00 
2.50000000e+00 1.00000000e+00 0.00000000e+00 
3.33333325e+00 1.00000000e+00 0.00000000e+00 
4.16666651e+00 1.00000000e+00 0.00000000e+00 
5.00000000e+00 1.00000000e+00 0.00000000e+00 

        </DataArray>
      </Points>
      <Cells>
        <DataArray type="Int32" Name="connectivity" format="ascii">
0 1 5 4
4 5 9 8
8 9 13 12
1 2 6 5
5 6 10 9
9 10 14 13
2 3 7 6
6 7 11 10
10 11 15 14

        </DataArray>
        <DataArray type="Int32" Name="offsets" format="ascii">
4 8 12 16 20 24 28 32 36 
        </DataArray>
        <DataArray type="UInt8" Name="types" format="ascii">
9 9 9 9 9 9 9 9 9 
        </DataArray>
      </Cells>
      <PointData>
        <DataArray type="Float64" Name="u">
          0.00000000e+00 0.00000000e+00 0.00000000e+00 0.00000000e+00 0.00000000e+00 -3.02816503e+00 -5.10032193e+00 -9.16751828e+00 0.00000000e+00 -5.26933212e+00 -9.11107809e+00 -1.54155774e+01 0.00000000e+00 -6.75477158e+00 -1.15263293e+01 -1.84307095e+01 
        </DataArray>
        <DataArray type="Float64" Name="v">
          0.00000000e+00 0.00000000e+00 0.00000000e+00 0.00000000e+00 0.00000000e+00 8.88213491e-01 9.52722416e-01 6.55013868e-01 0.00000000e+00 2.62526447e+00 2.62268116e+00 1.74374812e+00 0.00000000e+00 5.74440784e+00 5.37543261e+00 3.51247731e+00 
        </DataArray>
        <DataArray type="Float64" Name="p">
          -5.81861256e+03 -5.76831336e+03 -5.71801417e+03 -5.66771498e+03 -5.80513831e+03 -5.75474773e+03 -5.70435716e+03 -5.65396658e+03 -5.79166406e+03 -5.74118210e+03 -5.69070014e+03 -5.64021819e+03 -5.77818981e+03 -5.72761647e+03 -5.67704313e+03 -5.62646979e+03 
        </DataArray>
      </PointData>
    </Piece>
    <Piece NumberOfPoints="16" NumberOfCells="9">
      <Points>
        <DataArray type="Float64" NumberOfComponents="3" format="ascii">
          2.50000000e+00 1.00000000e+00 0.00000000e+00 
3.33333325e+00 1.00000000e+00 0.00000000e+00 
4.16666651e+00 1.00000000e+00 0.00000000e+00 
5.00000000e+00 1.00000000e+00 0.00000000e+00 
2.50000000e+00 1.33333337e+00 0.00000000e+00 
3.33333325e+00 1.33333337e+00 0.00000000e+00 
4.16666651e+00 1.33333337e+00 0.00000000e+00 
5.00000000e+00 1.33333337e+00 0.00000000e+00 
2.50000000e+00 1.66666663e+00 0.00000000e+00 
3.33333325e+00 1.66666663e+00 0.00000000e+00 
4.16666651e+00 1.66666663e+00 0.00000000e+00 
5.00000000e+00 1.66666663e+00 0.00000000e+00 
2.50000000e+00 2.00000000e+00 0.00000000e+00 
3.33333325e+00 2.00000000e+00 0.00000000e+00 
4.16666651e+00 2.00000000e+00 0.00000000e+00 
5.00000000e+00 2.00000000e+00 0.00000000e+00 

        </DataArray>
      </Points>
      <Cells>
        <DataArray type="Int32" Name="connectivity" format="ascii">
0 1 5 4
4 5 9 8
8 9 13 12
1 2 6 5
5 6 10 9
9 10 14 13
2 3 7 6
6 7 11 10
10 11 15 14

        </DataArray>
        <DataArray type="Int32" Name="offsets" format="ascii">
4 8 12 16 20 24 28 32 36 
        </DataArray>
        <DataArray type="UInt8" Name="types" format="ascii">
9 9 9 9 9 9 9 9 9 
        </DataArray>
      </Cells>
      <PointData>
        <DataArray type="Float64" Name="u">
          0.00000000e+00 -6.75477158e+00 -1.15263293e+01 -1.84307095e+01 0.00000000e+00 -7.47985939e+00 -1.19866806e+01 -1.80150032e+01 0.00000000e+00 -7.20082006e+00 -1.00484021e+01 -1.35513047e+01 0.00000000e+00 -5.34132388e+00 -4.99639263e+00 -4.32647790e+00 
        </DataArray>
        <DataArray type="Float64" Name="v">
          0.00000000e+00 5.74440784e+00 5.37543261e+00 3.51247731e+00 0.00000000e+00 9.50108891e+00 8.17176083e+00 4.84440543e+00 0.00000000e+00 1.23900564e+01 1.00807098e+01 5.25266053e+00 0.00000000e+00 1.53818905e+01 1.11175825e+01 4.35602411e+00 
        </DataArray>
        <DataArray type="Float64" Name="p">
          -5.76250619e+03 -5.72133444e+03 -5.68016270e+03 -5.63899095e+03 -5.85600082e+03 -5.79944680e+03 -5.74289279e+03 -5.68633878e+03 -5.94949545e+03 -5.87755917e+03 -5.80562289e+03 -5.73368661e+03 -6.04299008e+03 -5.95567153e+03 -5.86835299e+03 -5.78103444e+03 
        </DataArray>
      </PointData>
    </Piece>
    <Piece NumberOfPoints="16" NumberOfCells="9">
      <Points>
        <DataArray type="Float64" NumberOfComponents="3" format="ascii">
          2.50000000e+00 2.00000000e+00 0.00000000e+00 
3.33333325e+00 2.00000000e+00 0.00000000e+00 
4.16666651e+00 2.00000000e+00 0.00000000e+00 
5.00000000e+00 2.00000000e+00 0.00000000e+00 
2.50000000e+00 2.33333325e+00 0.00000000e+00 
3.33333325e+00 2.33333325e+00 0.00000000e+00 
4.16666651e+00 2.33333325e+00 0.00000000e+00 
5.00000000e+00 2.33333325e+00 0.00000000e+00 
2.50000000e+00 2.66666675e+00 0.00000000e+00 
3.33333325e+00 2.66666675e+00 0.00000000e+00 
4.16666651e+00 2.66666675e+00 0.00000000e+00 
5.00000000e+00 2.66666675e+00 0.00000000e+00 
2.50000000e+00 3.00000000e+00 0.00000000e+00 
3.33333325e+00 3.00000000e+00 0.00000000e+00 
4.16666651e+00 3.00000000e+00 0.00000000e+00 
5.00000000e+00 3.00000000e+00 0.00000000e+00 

        </DataArray>
      </Points>
      <Cells>
        <DataArray type="Int32" Name="connectivity" format="ascii">
0 1 5 4
4 5 9 8
8 9 13 12
1 2 6 5
5 6 10 9
9 10 14 13
2 3 7 6
6 7 11 10
10 11 15 14

        </DataArray>
        <DataArray type="Int32" Name="offsets" format="ascii">
4 8 12 16 20 24 28 32 36 
        </DataArray>
        <DataArray type="UInt8" Name="types" format="ascii">
9 9 9 9 9 9 9 9 9 
        </DataArray>
      </Cells>
      <PointData>
        <DataArray type="Float64" Name="u">
          0.00000000e+00 -5.34132388e+00 -4.99639263e+00 -4.32647790e+00 0.00000000e+00 -6.56176335e-01 3.85447558e+00 1.20054434e+01 0.00000000e+00 1.24407650e+01 2.08285353e+01 3.56410352e+01 0.00000000e+00 4.65762240e+01 5.21203989e+01 6.92361135e+01 
        </DataArray>
        <DataArray type="Float64" Name="v">
          0.00000000e+00 1.53818905e+01 1.11175825e+01 4.35602411e+00 0.00000000e+00 1.68315285e+01 9.12020526e+00 1.15656988e+00 0.00000000e+00 1.33362971e+01 6.15948148e+00 -1.46853411e+00 0.00000000e+00 2.07973104e+00 -7.17950874e-01 -3.37052587e+00 
        </DataArray>
        <DataArray type="Float64" Name="p">
          -6.00535795e+03 -5.96639598e+03 -5.92743401e+03 -5.88847204e+03 -6.34191405e+03 -6.13304889e+03 -5.92418372e+03 -5.71531855e+03 -6.67847016e+03 -6.29970179e+03 -5.92093343e+03 -5.54216507e+03 -7.01502626e+03 -6.46635470e+03 -5.91768314e+03 -5.36901158e+03 
        </DataArray>
      </PointData>
    </Piece>
    <Piece NumberOfPoints="16" NumberOfCells="9">
      <Points>
        <DataArray type="Float64" NumberOfComponents="3" format="ascii">
          2.50000000e+00 3.00000000e+00 0.00000000e+00 
3.33333325e+00 3.00000000e+00 0.00000000e+00 
4.16666651e+00 3.00000000e+00 0.00000000e+00 
5.00000000e+00 3.00000000e+00 0.00000000e+00 
2.50000000e+00 3.33333325e+00 0.00000000e+00 
3.33333325e+00 3.33333325e+00 0.00000000e+00 
4.16666651e+00 3.33333325e+00 0.00000000e+00 
5.00000000e+00 3.33333325e+00 0.00000000e+00 
2.50000000e+00 3.66666675e+00 0.00000000e+00 
3.33333325e+00 3.66666675e+00 0.00000000e+00 
4.16666651e+00 3.66666675e+00 0.00000000e+00 
5.00000000e+00 3.66666675e+00 0.00000000e+00 
2.50000000e+00 4.00000000e+00 0.00000000e+00 
3.33333325e+00 4.00000000e+00 0.00000000e+00 
4.16666651e+00 4.00000000e+00 0.00000000e+00 
5.00000000e+00 4.00000000e+00 0.00000000e+00 

        </DataArray>
      </Points>
      <Cells>
        <DataArray type="Int32" Name="connectivity" format="ascii">
0 1 5 4
4 5 9 8
8 9 13 12
1 2 6 5
5 6 10 9
9 10 14 13
2 3 7 6
6 7 11 10
10 11 15 14

        </DataArray>
        <DataArray type="Int32" Name="offsets" format="ascii">
4 8 12 16 20 24 28 32 36 
        </DataArray>
        <DataArray type="UInt8" Name="types" format="ascii">
9 9 9 9 9 9 9 9 9 
        </DataArray>
      </Cells>
      <PointData>
        <DataArray type="Float64" Name="u">
          0.00000000e+00 4.65762240e+01 5.21203989e+01 6.92361135e+01 9.10751309e+01 9.60302255e+01 1.00586809e+02 1.06196255e+02 1.55823585e+02 1.51246011e+02 1.51090284e+02 1.48343884e+02 1.98759342e+02 1.91615689e+02 1.90238029e+02 1.82474757e+02 
        </DataArray>
        <DataArray type="Float64" Name="v">
          0.00000000e+00 2.07973104e+00 -7.17950874e-01 -3.37052587e+00 -1.69573648e+00 -6.63099510e+00 -5.08155375e+00 -2.40594557e+00 -8.68231565e-01 -6.93011917e+00 -6.72451133e+00 -2.99412533e+00 -8.27325649e-01 -4.52412873e+00 -4.25574117e+00 -2.46856857e+00 
        </DataArray>
        <DataArray type="Float64" Name="p">
          -7.07991314e+03 -6.43781985e+03 -5.79572656e+03 -5.15363327e+03 -6.58248255e+03 -6.19885484e+03 -5.81522713e+03 -5.43159942e+03 -6.08505195e+03 -5.95988982e+03 -5.83472770e+03 -5.70956557e+03 -5.58762135e+03 -5.72092481e+03 -5.85422826e+03 -5.98753172e+03 
        </DataArray>
      </PointData>
    </Piece>
    <Piece NumberOfPoints="16" NumberOfCells="9">
      <Points>
        <DataArray type="Float64" NumberOfComponents="3" format="ascii">
          2.50000000e+00 4.00000000e+00 0.00000000e+00 
3.33333325e+00 4.00000000e+00 0.00000000e+00 
4.16666651e+00 4.00000000e+00 0.00000000e+00 
5.00000000e+00 4.00000000e+00 0.00000000e+00 
2.50000000e+00 4.33333349e+00 0.00000000e+00 
3.33333325e+00 4.33333349e+00 0.00000000e+00 
4.16666651e+00 4.33333349e+00 0.00000000e+00 
5.00000000e+00 4.33333349e+00 0.00000000e+00 
2.50000000e+00 4.66666651e+00 0.00000000e+00 
3.33333325e+00 4.66666651e+00 0.00000000e+00 
4.16666651e+00 4.66666651e+00 0.00000000e+00 
5.00000000e+00 4.66666651e+00 0.00000000e+00 
2.50000000e+00 5.00000000e+00 0.00000000e+00 
3.33333325e+00 5.00000000e+00 0.00000000e+00 
4.16666651e+00 5.00000000e+00 0.00000000e+00 
5.00000000e+00 5.00000000e+00 0.00000000e+00 

        </DataArray>
      </Points>
      <Cells>
        <DataArray type="Int32" Name="connectivity" format="ascii">
0 1 5 4
4 5 9 8
8 9 13 12
1 2 6 5
5 6 10 9
9 10 14 13
2 3 7 6
6 7 11 10
10 11 15 14

        </DataArray>
        <DataArray type="Int32" Name="offsets" format="ascii">
4 8 12 16 20 24 28 32 36 
        </DataArray>
        <DataArray type="UInt8" Name="types" format="ascii">
9 9 9 9 9 9 9 9 9 
        </DataArray>
      </Cells>
      <PointData>
        <DataArray type="Float64" Name="u">
          1.98759342e+02 1.91615689e+02 1.90238029e+02 1.82474757e+02 2.20595056e+02 2.12503585e+02 2.10012463e+02 2.01326998e+02 2.20595056e+02 2.12503585e+02 2.10012463e+02 2.01326998e+02 1.98759342e+02 1.91615689e+02 1.90238029e+02 1.82474757e+02 
        </DataArray>
        <DataArray type="Float64" Name="v">
          -8.27325649e-01 -4.52412873e+00 -4.25574117e+00 -2.46856857e+00 3.71685903e-02 -5.47941341e-01 -1.26386650e+00 -1.17319522e+00 -3.71685903e-02 5.47941341e-01 1.26386650e+00 1.17319522e+00 8.27325649e-01 4.52412873e+00 4.25574117e+00 2.46856857e+00 
        </DataArray>
        <DataArray type="Float64" Name="p">
          -5.42030304e+03 -5.64186441e+03 -5.86342577e+03 -6.08498714e+03 -5.42030304e+03 -5.64186441e+03 -5.86342577e+03 -6.08498714e+03 -5.42030304e+03 -5.64186441e+03 -5.86342577e+03 -6.08498714e+03 -5.42030304e+03 -5.64186441e+03 -5.86342577e+03 -6.08498714e+03 
        </DataArray>
      </PointData>
    </Piece>
    <Piece NumberOfPoints="16" NumberOfCells="9">
      <Points>
        <DataArray type="Float64" NumberOfComponents="3" format="ascii">
          2.50000000e+00 5.00000000e+00 0.00000000e+00 
3.33333325e+00 5.00000000e+00 0.00000000e+00 
4.16666651e+00 5.00000000e+00 0.00000000e+00 
5.00000000e+00 5.00000000e+00 0.00000000e+00 
2.50000000e+00 5.33333349e+00 0.00000000e+00 
3.33333325e+00 5.33333349e+00 0.00000000e+00 
4.16666651e+00 5.33333349e+00 0.00000000e+00 
5.00000000e+00 5.33333349e+00 0.00000000e+00 
2.50000000e+00 5.66666651e+00 0.00000000e+00 
3.33333325e+00 5.66666651e+00 0.00000000e+00 
4.16666651e+00 5.66666651e+00 0.00000000e+00 
5.00000000e+00 5.66666651e+00 0.00000000e+00 
2.50000000e+00 6.00000000e+00 0.00000000e+00 
3.33333325e+00 6.00000000e+00 0.00000000e+00 
4.16666651e+00 6.00000000e+00 0.00000000e+00 
5.00000000e+00 6.00000000e+00 0.00000000e+00 

        </DataArray>
      </Points>
      <Cells>
        <DataArray type="Int32" Name="connectivity" format="ascii">
0 1 5 4
4 5 9 8
8 9 13 12
1 2 6 5
5 6 10 9
9 10 14 13
2 3 7 6
6 7 11 10
10 11 15 14

        </DataArray>
        <DataArray type="Int32" Name="offsets" format="ascii">
4 8 12 16 20 24 28 32 36 
        </DataArray>
        <DataArray type="UInt8" Name="types" format="ascii">
9 9 9 9 9 9 9 9 9 
        </DataArray>
      </Cells>
      <PointData>
        <DataArray type="Float64" Name="u">
          1.98759342e+02 1.91615689e+02 1.90238029e+02 1.82474757e+02 1.55823585e+02 1.51246011e+02 1.51090284e+02 1.48343884e+02 9.10751309e+01 9.60302255e+01 1.00586809e+02 1.06196255e+02 0.00000000e+00 4.65762240e+01 5.21203989e+01 6.92361135e+01 
        </DataArray>
        <DataArray type="Float64" Name="v">
          8.27325649e-01 4.52412873e+00 4.25574117e+00 2.46856857e+00 8.68231565e-01 6.93011917e+00 6.72451133e+00 2.99412533e+00 1.69573648e+00 6.63099510e+00 5.08155375e+00 2.40594557e+00 0.00000000e+00 -2.07973104e+00 7.17950874e-01 3.37052587e+00 
        </DataArray>
        <DataArray type="Float64" Name="p">
          -5.58762135e+03 -5.72092481e+03 -5.85422826e+03 -5.98753172e+03 -6.08505195e+03 -5.95988982e+03 -5.83472770e+03 -5.70956557e+03 -6.58248255e+03 -6.19885484e+03 -5.81522713e+03 -5.43159942e+03 -7.07991314e+03 -6.43781985e+03 -5.79572656e+03 -5.15363327e+03 
        </DataArray>
      </PointData>
    </Piece>
    <Piece NumberOfPoints="16" NumberOfCells="9">
      <Points>
        <DataArray type="Float64" NumberOfComponents="3" format="ascii">
          2.50000000e+00 6.00000000e+00 0.00000000e+00 
3.33333325e+00 6.00000000e+00 0.00000000e+00 
4.16666651e+00 6.00000000e+00 0.00000000e+00 
5.00000000e+00 6.00000000e+00 0.00000000e+00 
2.50000000e+00 6.33333349e+00 0.00000000e+00 
3.33333325e+00 6.33333349e+00 0.00000000e+00 
4.16666651e+00 6.33333349e+00 0.00000000e+00 
5.00000000e+00 6.33333349e+00 0.00000000e+00 
2.50000000e+00 6.66666651e+00 0.00000000e+00 
3.33333325e+00 6.66666651e+00 0.00000000e+00 
4.16666651e+00 6.66666651e+00 0.00000000e+00 
5.00000000e+00 6.66666651e+00 0.00000000e+00 
2.50000000e+00 7.00000000e+00 0.00000000e+00 
3.33333325e+00 7.00000000e+00 0.00000000e+00 
4.16666651e+00 7.00000000e+00 0.00000000e+00 
5.00000000e+00 7.00000000e+00 0.00000000e+00 

        </DataArray>
      </Points>
      <Cells>
        <DataArray type="Int32" Name="connectivity" format="ascii">
0 1 5 4
4 5 9 8
8 9 13 12
1 2 6 5
5 6 10 9
9 10 14 13
2 3 7 6
6 7 11 10
10 11 15 14

        </DataArray>
        <DataArray type="Int32" Name="offsets" format="ascii">
4 8 12 16 20 24 28 32 36 
        </DataArray>
        <DataArray type="UInt8" Name="types" format="ascii">
9 9 9 9 9 9 9 9 9 
        </DataArray>
      </Cells>
      <PointData>
        <DataArray type="Float64" Name="u">
          0.00000000e+00 4.65762240e+01 5.21203989e+01 6.92361135e+01 0.00000000e+00 1.24407650e+01 2.08285353e+01 3.56410352e+01 0.00000000e+00 -6.56176335e-01 3.85447558e+00 1.20054434e+01 0.00000000e+00 -5.34132388e+00 -4.99639263e+00 -4.32647790e+00 
        </DataArray>
        <DataArray type="Float64" Name="v">
          0.00000000e+00 -2.07973104e+00 7.17950874e-01 3.37052587e+00 0.00000000e+00 -1.33362971e+01 -6.15948148e+00 1.46853411e+00 0.00000000e+00 -1.68315285e+01 -9.12020526e+00 -1.15656988e+00 0.00000000e+00 -1.53818905e+01 -1.11175825e+01 -4.35602411e+00 
        </DataArray>
        <DataArray type="Float64" Name="p">
          -7.01502626e+03 -6.46635470e+03 -5.91768314e+03 -5.36901158e+03 -6.67847016e+03 -6.29970179e+03 -5.92093343e+03 -5.54216507e+03 -6.34191405e+03 -6.13304889e+03 -5.92418372e+03 -5.71531855e+03 -6.00535795e+03 -5.96639598e+03 -5.92743401e+03 -5.88847204e+03 
        </DataArray>
      </PointData>
    </Piece>
    <Piece NumberOfPoints="16" NumberOfCells="9">
      <Points>
        <DataArray type="Float64" NumberOfComponents="3" format="ascii">
          2.50000000e+00 7.00000000e+00 0.00000000e+00 
3.33333325e+00 7.00000000e+00 0.00000000e+00 
4.16666651e+00 7.00000000e+00 0.00000000e+00 
5.00000000e+00 7.00000000e+00 0.00000000e+00 
2.50000000e+00 7.33333349e+00 0.00000000e+00 
3.33333325e+00 7.33333349e+00 0.00000000e+00 
4.16666651e+00 7.33333349e+00 0.00000000e+00 
5.00000000e+00 7.33333349e+00 0.00000000e+00 
2.50000000e+00 7.66666651e+00 0.00000000e+00 
3.33333325e+00 7.66666651e+00 0.00000000e+00 
4.16666651e+00 7.66666651e+00 0.00000000e+00 
5.00000000e+00 7.66666651e+00 0.00000000e+00 
2.50000000e+00 8.00000000e+00 0.00000000e+00 
3.33333325e+00 8.00000000e+00 0.00000000e+00 
4.16666651e+00 8.00000000e+00 0.00000000e+00 
5.00000000e+00 8.00000000e+00 0.00000000e+00 

        </DataArray>
      </Points>
      <Cells>
        <DataArray type="Int32" Name="connectivity" format="ascii">
0 1 5 4
4 5 9 8
8 9 13 12
1 2 6 5
5 6 10 9
9 10 14 13
2 3 7 6
6 7 11 10
10 11 15 14

        </DataArray>
        <DataArray type="Int32" Name="offsets" format="ascii">
4 8 12 16 20 24 28 32 36 
        </DataArray>
        <DataArray type="UInt8" Name="types" format="ascii">
9 9 9 9 9 9 9 9 9 
        </DataArray>
      </Cells>
      <PointData>
        <DataArray type="Float64" Name="u">
          0.00000000e+00 -5.34132388e+00 -4.99639263e+00 -4.32647790e+00 0.00000000e+00 -7.20082006e+00 -1.00484021e+01 -1.35513047e+01 0.00000000e+00 -7.47985939e+00 -1.19866806e+01 -1.80150032e+01 0.00000000e+00 -6.75477158e+00 -1.15263293e+01 -1.84307095e+01 
        </DataArray>
        <DataArray type="Float64" Name="v">
          0.00000000e+00 -1.53818905e+01 -1.11175825e+01 -4.35602411e+00 0.00000000e+00 -1.23900564e+01 -1.00807098e+01 -5.25266053e+00 0.00000000e+00 -9.50108891e+00 -8.17176083e+00 -4.84440543e+00 0.00000000e+00 -5.74440784e+00 -5.37543261e+00 -3.51247731e+00 
        </DataArray>
        <DataArray type="Float64" Name="p">
          -6.04299008e+03 -5.95567153e+03 -5.86835299e+03 -5.78103444e+03 -5.94949545e+03 -5.87755917e+03 -5.80562289e+03 -5.73368661e+03 -5.85600082e+03 -5.79944680e+03 -5.74289279e+03 -5.68633878e+03 -5.76250619e+03 -5.72133444e+03 -5.68016270e+03 -5.63899095e+03 
        </DataArray>
      </PointData>
    </Piece>
    <Piece NumberOfPoints="16" NumberOfCells="9">
      <Points>
        <DataArray type="Float64" NumberOfComponents="3" format="ascii">
          2.50000000e+00 8.00000000e+00 0.00000000e+00 
3.33333325e+00 8.00000000e+00 0.00000000e+00 
4.16666651e+00 8.00000000e+00 0.00000000e+00 
5.00000000e+00 8.00000000e+00 0.00000000e+00 
2.50000000e+00 8.33333302e+00 0.00000000e+00 
3.33333325e+00 8.33333302e+00 0.00000000e+00 
4.16666651e+00 8.33333302e+00 0.00000000e+00 
5.00000000e+00 8.33333302e+00 0.00000000e+00 
2.50000000e+00 8.66666698e+00 0.00000000e+00 
3.33333325e+00 8.66666698e+00 0.00000000e+00 
4.16666651e+00 8.66666698e+00 0.00000000e+00 
5.00000000e+00 8.66666698e+00 0.00000000e+00 
2.50000000e+00 9.00000000e+00 0.00000000e+00 
3.33333325e+00 9.00000000e+00 0.00000000e+00 
4.16666651e+00 9.00000000e+00 0.00000000e+00 
5.00000000e+00 9.00000000e+00 0.00000000e+00 

        </DataArray>
      </Points>
      <Cells>
        <DataArray type="Int32" Name="connectivity" format="ascii">
0 1 5 4
4 5 9 8
8 9 13 12
1 2 6 5
5 6 10 9
9 10 14 13
2 3 7 6
6 7 11 10
10 11 15 14

        </DataArray>
        <DataArray type="Int32" Name="offsets" format="ascii">
4 8 12 16 20 24 28 32 36 
        </DataArray>
        <DataArray type="UInt8" Name="types" format="ascii">
9 9 9 9 9 9 9 9 9 
        </DataArray>
      </Cells>
      <PointData>
        <DataArray type="Float64" Name="u">
          0.00000000e+00 -6.75477158e+00 -1.15263293e+01 -1.84307095e+01 0.00000000e+00 -5.26933212e+00 -9.11107809e+00 -1.54155774e+01 0.00000000e+00 -3.02816503e+00 -5.10032193e+00 -9.16751828e+00 0.00000000e+00 0.00000000e+00 0.00000000e+00 0.00000000e+00 
        </DataArray>
        <DataArray type="Float64" Name="v">
          0.00000000e+00 -5.74440784e+00 -5.37543261e+00 -3.51247731e+00 0.00000000e+00 -2.62526447e+00 -2.62268116e+00 -1.74374812e+00 0.00000000e+00 -8.88213491e-01 -9.52722416e-01 -6.55013868e-01 0.00000000e+00 0.00000000e+00 0.00000000e+00 0.00000000e+00 
        </DataArray>
        <DataArray type="Float64" Name="p">
          -5.77818981e+03 -5.72761647e+03 -5.67704313e+03 -5.62646979e+03 -5.79166406e+03 -5.74118210e+03 -5.69070014e+03 -5.64021819e+03 -5.80513831e+03 -5.75474773e+03 -5.70435716e+03 -5.65396658e+03 -5.81861256e+03 -5.76831336e+03 -5.71801417e+03 -5.66771498e+03 
        </DataArray>
      </PointData>
    </Piece>
    <Piece NumberOfPoints="16" NumberOfCells="9">
      <Points>
        <DataArray type="Float64" NumberOfComponents="3" format="ascii">
          5.00000000e+00 0.00000000e+00 0.00000000e+00 
5.83333349e+00 0.00000000e+00 0.00000000e+00 
6.66666651e+00 0.00000000e+00 0.00000000e+00 
7.50000000e+00 0.00000000e+00 0.00000000e+00 
5.00000000e+00 3.33333343e-01 0.00000000e+00 
5.83333349e+00 3.33333343e-01 0.00000000e+00 
6.66666651e+00 3.33333343e-01 0.00000000e+00 
7.50000000e+00 3.33333343e-01 0.00000000e+00 
5.00000000e+00 6.66666687e-01 0.00000000e+00 
5.83333349e+00 6.66666687e-01 0.00000000e+00 
6.66666651e+00 6.66666687e-01 0.00000000e+00 
7.50000000e+00 6.66666687e-01 0.00000000e+00 
5.00000000e+00 1.00000000e+00 0.00000000e+00 
5.83333349e+00 1.00000000e+00 0.00000000e+00 
6.66666651e+00 1.00000000e+00 0.00000000e+00 
7.50000000e+00 1.00000000e+00 0.00000000e+00 

        </DataArray>
      </Points>
      <Cells>
        <DataArray type="Int32" Name="connectivity" format="ascii">
0 1 5 4
4 5 9 8
8 9 13 12
1 2 6 5
5 6 10 9
9 10 14 13
2 3 7 6
6 7 11 10
10 11 15 14

        </DataArray>
        <DataArray type="Int32" Name="offsets" format="ascii">
4 8 12 16 20 24 28 32 36 
        </DataArray>
        <DataArray type="UInt8" Name="types" format="ascii">
9 9 9 9 9 9 9 9 9 
        </DataArray>
      </Cells>
      <PointData>
        <DataArray type="Float64" Name="u">