<?xml version="1.0"?>
<VTKFile type="UnstructuredGrid" version="0.1" byte_order="LittleEndian">
  <UnstructuredGrid>
    <Piece NumberOfPoints="16" NumberOfCells="9">
      <Points>
        <DataArray type="Float64" NumberOfComponents="3" format="ascii">
          0.00000000e+00 3.00000000e+00 0.00000000e+00 
8.33333313e-01 3.00000000e+00 0.00000000e+00 
1.66666663e+00 3.00000000e+00 0.00000000e+00 
2.50000000e+00 3.00000000e+00 0.00000000e+00 
0.00000000e+00 3.33333325e+00 0.00000000e+00 
8.33333313e-01 3.33333325e+00 0.00000000e+00 
1.66666663e+00 3.33333325e+00 0.00000000e+00 
2.50000000e+00 3.33333325e+00 0.00000000e+00 
0.00000000e+00 3.66666675e+00 0.00000000e+00 
8.33333313e-01 3.66666675e+00 0.00000000e+00 
1.66666663e+00 3.66666675e+00 0.00000000e+00 
2.50000000e+00 3.66666675e+00 0.00000000e+00 
0.00000000e+00 4.00000000e+00 0.00000000e+00 
8.33333313e-01 4.00000000e+00 0.00000000e+00 
1.66666663e+00 4.00000000e+00 0.00000000e+00 
2.50000000e+00 4.00000000e+00 0.00000000e+00 

        </DataArray>
      </Points>
      <Cells>
        <DataArray type="Int32" Name="connectivity" format="ascii">
0 1 5 4
4 5 9 8
8 9 13 12
1 2 6 5
5 6 10 9
9 10 14 13
2 3 7 6
6 7 11 10
10 11 15 14

        </DataArray>
        <DataArray type="Int32" Name="offsets" format="ascii">
4 8 12 16 20 24 28 32 36 
        </DataArray>
        <DataArray type="UInt8" Name="types" format="ascii">
9 9 9 9 9 9 9 9 9 
        </DataArray>
      </Cells>
      <PointData>
        <DataArray type="Float64" Name="u">
          0.00000000e+00 0.00000000e+00 0.00000000e+00 0.00000000e+00 8.88888889e+01 9.09774794e+01 9.06831842e+01 9.65687485e+01 1.55555556e+02 1.56853328e+02 1.57639333e+02 1.60493156e+02 2.00000000e+02 1.99971183e+02 2.01414780e+02 2.01877410e+02 
        </DataArray>
        <DataArray type="Float64" Name="v">
          0.00000000e+00 0.00000000e+00 0.00000000e+00 0.00000000e+00 0.00000000e+00 -7.23928215e-01 -9.38246005e-01 -3.36525344e+00 0.00000000e+00 -6.90978333e-01 -1.44191389e+00 -3.03975615e+00 0.00000000e+00 -1.42897572e+00 -2.43253135e+00 -4.30739468e+00 
        </DataArray>
        <DataArray type="Float64" Name="p">
          -2.16794298e+03 -3.59664392e+03 -5.02534486e+03 -6.45404580e+03 -2.16267171e+03 -3.56836487e+03 -4.97405802e+03 -6.37975117e+03 -2.15740045e+03 -3.54008581e+03 -4.92277117e+03 -6.30545653e+03 -2.15212918e+03 -3.51180675e+03 -4.87148433e+03 -6.23116190e+03 
        </DataArray>
      </PointData>
    </Piece>
    <Piece NumberOfPoints="16" NumberOfCells="9">
      <Points>
        <DataArray type="Float64" NumberOfComponents="3" format="ascii">
          0.00000000e+00 4.00000000e+00 0.00000000e+00 
8.33333313e-01 4.00000000e+00 0.00000000e+00 
1.66666663e+00 4.00000000e+00 0.00000000e+00 
2.50000000e+00 4.00000000e+00 0.00000000e+00 
0.00000000e+00 4.33333349e+00 0.00000000e+00 
8.33333313e-01 4.33333349e+00 0.00000000e+00 
1.66666663e+00 4.33333349e+00 0.00000000e+00 
2.50000000e+00 4.33333349e+00 0.00000000e+00 
0.00000000e+00 4.66666651e+00 0.00000000e+00 
8.33333313e-01 4.66666651e+00 0.00000000e+00 
1.66666663e+00 4.66666651e+00 0.00000000e+00 
2.50000000e+00 4.66666651e+00 0.00000000e+00 
0.00000000e+00 5.00000000e+00 0.00000000e+00 
8.33333313e-01 5.00000000e+00 0.00000000e+00 
1.66666663e+00 5.00000000e+00 0.00000000e+00 
2.50000000e+00 5.00000000e+00 0.00000000e+00 

        </DataArray>
      </Points>
      <Cells>
        <DataArray type="Int32" Name="connectivity" format="ascii">
0 1 5 4
4 5 9 8
8 9 13 12
1 2 6 5
5 6 10 9
9 10 14 13
2 3 7 6
6 7 11 10
10 11 15 14

        </DataArray>
        <DataArray type="Int32" Name="offsets" format="ascii">
4 8 12 16 20 24 28 32 36 
        </DataArray>
        <DataArray type="UInt8" Name="types" format="ascii">
9 9 9 9 9 9 9 9 9 
        </DataArray>
      </Cells>
      <PointData>
        <DataArray type="Float64" Name="u">
          2.00000000e+02 1.99971183e+02 2.01414780e+02 2.01877410e+02 2.22222222e+02 2.21316557e+02 2.22579012e+02 2.21646131e+02 2.22222222e+02 2.20611730e+02 2.21779595e+02 2.19440643e+02 2.00000000e+02 1.98005174e+02 1.99278396e+02 1.95592087e+02 
        </DataArray>
        <DataArray type="Float64" Name="v">
          0.00000000e+00 -1.42897572e+00 -2.43253135e+00 -4.30739468e+00 0.00000000e+00 -1.36988019e+00 -2.68677890e+00 -3.80770116e+00 0.00000000e+00 -1.34669404e+00 -2.47518889e+00 -3.87462711e+00 0.00000000e+00 -8.14342245e-01 -1.93658623e+00 -2.59772530e+00 
        </DataArray>
        <DataArray type="Float64" Name="p">
          -2.11835416e+03 -3.47852765e+03 -4.83870114e+03 -6.19887463e+03 -2.00202313e+03 -3.36203579e+03 -4.72204844e+03 -6.08206110e+03 -1.88569210e+03 -3.24554392e+03 -4.60539574e+03 -5.96524756e+03 -1.76936108e+03 -3.12905206e+03 -4.48874305e+03 -5.84843403e+03 
        </DataArray>
      </PointData>
    </Piece>
    <Piece NumberOfPoints="16" NumberOfCells="9">
      <Points>
        <DataArray type="Float64" NumberOfComponents="3" format="ascii">
          0.00000000e+00 5.00000000e+00 0.00000000e+00 
8.33333313e-01 5.00000000e+00 0.00000000e+00 
1.66666663e+00 5.00000000e+00 0.00000000e+00 
2.50000000e+00 5.00000000e+00 0.00000000e+00 
0.00000000e+00 5.33333349e+00 0.00000000e+00 
8.33333313e-01 5.33333349e+00 0.00000000e+00 
1.66666663e+00 5.33333349e+00 0.00000000e+00 
2.50000000e+00 5.33333349e+00 0.00000000e+00 
0.00000000e+00 5.66666651e+00 0.00000000e+00 
8.33333313e-01 5.66666651e+00 0.00000000e+00 
1.66666663e+00 5.66666651e+00 0.00000000e+00 
2.50000000e+00 5.66666651e+00 0.00000000e+00 
0.00000000e+00 6.00000000e+00 0.00000000e+00 
8.33333313e-01 6.00000000e+00 0.00000000e+00 
1.66666663e+00 6.00000000e+00 0.00000000e+00 
2.50000000e+00 6.00000000e+00 0.00000000e+00 

        </DataArray>
      </Points>
      <Cells>
        <DataArray type="Int32" Name="connectivity" format="ascii">
0 1 5 4
4 5 9 8
8 9 13 12
1 2 6 5
5 6 10 9
9 10 14 13
2 3 7 6
6 7 11 10
10 11 15 14

        </DataArray>
        <DataArray type="Int32" Name="offsets" format="ascii">
4 8 12 16 20 24 28 32 36 
        </DataArray>
        <DataArray type="UInt8" Name="types" format="ascii">
9 9 9 9 9 9 9 9 9 
        </DataArray>
      </Cells>
      <PointData>
        <DataArray type="Float64" Name="u">
          2.00000000e+02 1.98005174e+02 1.99278396e+02 1.95592087e+02 1.55555556e+02 1.53916622e+02 1.54872512e+02 1.51130158e+02 8.88888889e+01 8.80200348e+01 8.83042579e+01 8.57414983e+01 0.00000000e+00 0.00000000e+00 0.00000000e+00 0.00000000e+00 
        </DataArray>
        <DataArray type="Float64" Name="v">
          0.00000000e+00 -8.14342245e-01 -1.93658623e+00 -2.59772530e+00 0.00000000e+00 -2.61733278e-01 -9.29517899e-01 -1.24944267e+00 0.00000000e+00 -2.26867492e-01 -8.32101211e-01 1.00461773e-01 0.00000000e+00 0.00000000e+00 0.00000000e+00 0.00000000e+00 
        </DataArray>
        <DataArray type="Float64" Name="p">
          -1.77950115e+03 -3.12383480e+03 -4.46816845e+03 -5.81250211e+03 -1.75422262e+03 -3.10189058e+03 -4.44955854e+03 -5.79722649e+03 -1.72894410e+03 -3.07994636e+03 -4.43094862e+03 -5.78195088e+03 -1.70366557e+03 -3.05800214e+03 -4.41233870e+03 -5.76667527e+03 
        </DataArray>
      </PointData>
    </Piece>
    <Piece NumberOfPoints="16" NumberOfCells="9">
      <Points>
        <DataArray type="Float64" NumberOfComponents="3" format="ascii">
          2.50000000e+00 0.00000000e+00 0.00000000e+00 
3.33333325e+00 0.00000000e+00 0.00000000e+00 
4.16666651e+00 0.00000000e+00 0.00000000e+00 
5.00000000e+00 0.00000000e+00 0.00000000e+00 
2.50000000e+00 3.33333343e-01 0.00000000e+00 
3.33333325e+00 3.33333343e-01 0.00000000e+00 
4.16666651e+00 3.33333343e-01 0.00000000e+00 
5.00000000e+00 3.33333343e-01 0.00000000e+00 
2.50000000e+00 6.66666687e-01 0.00000000e+00 
3.33333325e+00 6.66666687e-01 0.00000000e+00 
4.16666651e+00 6.66666687e-01 0.00000000e+00 
5.00000000e+00 6.66666687e-01 0.00000000e+00 
2.50000000e+00 1.00000000e+00 0.00000000e+00 
3.33333325e+00 1.00000000e+00 0.00000000e+00 
4.16666651e+00 1.00000000e+00 0.00000000e+00 
5.00000000e+00 1.00000000e+00 0.00000000e+00 

        </DataArray>
      </Points>
      <Cells>
        <DataArray type="Int32" Name="connectivity" format="ascii">
0 1 5 4
4 5 9 8
8 9 13 12
1 2 6 5
5 6 10 9
9 10 14 13
2 3 7 6
6 7 11 10
10 11 15 14

        </DataArray>
        <DataArray type="Int32" Name="offsets" format="ascii">
4 8 12 16 20 24 28 32 36 
        </DataArray>
        <DataArray type="UInt8" Name="types" format="ascii">
9 9 9 9 9 9 9 9 9 
        </DataArray>
      </Cells>
      <PointData>
        <DataArray type="Float64" Name="u">
          0.00000000e+00 0.00000000e+00 0.00000000e+00 0.00000000e+00 0.00000000e+00 -3.38591286e+00 -5.64368380e+00 -1.02538179e+01 0.00000000e+00 -5.82305831e+00 -9.96193065e+00 -1.70794689e+01 0.00000000e+00 -7.33551712e+00 -1.23476755e+01 -1.98726511e+01 
        </DataArray>
        <DataArray type="Float64" Name="v">
          0.00000000e+00 0.00000000e+00 0.00000000e+00 0.00000000e+00 0.00000000e+00 9.95236137e-01 1.07296289e+00 7.85926772e-01 0.00000000e+00 2.89547097e+00 2.92013221e+00 1.98663162e+00 0.00000000e+00 6.29050400e+00 5.99229689e+00 3.90060200e+00 
        </DataArray>
        <DataArray type="Float64" Name="p">
          -6.26873029e+03 -6.20870980e+03 -6.14868930e+03 -6.08866881e+03 -6.25475056e+03 -6.19459053e+03 -6.13443051e+03 -6.07427048e+03 -6.24077083e+03 -6.18047127e+03 -6.12017171e+03 -6.05987215e+03 -6.22679110e+03 -6.16635201e+03 -6.10591291e+03 -6.04547382e+03 
        </DataArray>
      </PointData>
    </Piece>
    <Piece NumberOfPoints="16" NumberOfCells="9">
      <Points>
        <DataArray type="Float64" NumberOfComponents="3" format="ascii">
          2.50000000e+00 1.00000000e+00 0.00000000e+00 
3.33333325e+00 1.00000000e+00 0.00000000e+00 
4.16666651e+00 1.00000000e+00 0.00000000e+00 
5.00000000e+00 1.00000000e+00 0.00000000e+00 
2.50000000e+00 1.33333337e+00 0.00000000e+00 
3.33333325e+00 1.33333337e+00 0.00000000e+00 
4.16666651e+00 1.33333337e+00 0.00000000e+00 
5.00000000e+00 1.33333337e+00 0.00000000e+00 
2.50000000e+00 1.66666663e+00 0.00000000e+00 
3.33333325e+00 1.66666663e+00 0.00000000e+00 
4.16666651e+00 1.66666663e+00 0.00000000e+00 
5.00000000e+00 1.66666663e+00 0.00000000e+00 
2.50000000e+00 2.00000000e+00 0.00000000e+00 
3.33333325e+00 2.00000000e+00 0.00000000e+00 
4.16666651e+00 2.00000000e+00 0.00000000e+00 
5.00000000e+00 2.00000000e+00 0.00000000e+00 

        </DataArray>
      </Points>
      <Cells>
        <DataArray type="Int32" Name="connectivity" format="ascii">
0 1 5 4
4 5 9 8
8 9 13 12
1 2 6 5
5 6 10 9
9 10 14 13
2 3 7 6
6 7 11 10
10 11 15 14

        </DataArray>
        <DataArray type="Int32" Name="offsets" format="ascii">
4 8 12 16 20 24 28 32 36 
        </DataArray>
        <DataArray type="UInt8" Name="types" format="ascii">
9 9 9 9 9 9 9 9 9 
        </DataArray>
      </Cells>
      <PointData>
        <DataArray type="Float64" Name="u">
          0.00000000e+00 -7.33551712e+00 -1.23476755e+01 -1.98726511e+01 0.00000000e+00 -7.91731253e+00 -1.23780788e+01 -1.84606806e+01 0.00000000e+00 -7.35166339e+00 -9.64974868e+00 -1.22974097e+01 0.00000000e+00 -5.06866720e+00 -3.48140020e+00 -7.52731783e-01 
        </DataArray>
        <DataArray type="Float64" Name="v">
          0.00000000e+00 6.29050400e+00 5.99229689e+00 3.90060200e+00 0.00000000e+00 1.02621848e+01 8.96766311e+00 5.11231267e+00 0.00000000e+00 1.32117921e+01 1.08336729e+01 5.11437246e+00 0.00000000e+00 1.60650917e+01 1.14575114e+01 3.34105692e+00 
        </DataArray>
        <DataArray type="Float64" Name="p">
          -6.21137274e+03 -6.16198711e+03 -6.11260148e+03 -6.06321585e+03 -6.30841526e+03 -6.24749419e+03 -6.18657312e+03 -6.12565205e+03 -6.40545777e+03 -6.33300127e+03 -6.26054477e+03 -6.18808826e+03 -6.50250029e+03 -6.41850835e+03 -6.33451641e+03 -6.25052447e+03 
        </DataArray>
      </PointData>
    </Piece>
    <Piece NumberOfPoints="16" NumberOfCells="9">
      <Points>
        <DataArray type="Float64" NumberOfComponents="3" format="ascii">
          2.50000000e+00 2.00000000e+00 0.00000000e+00 
3.33333325e+00 2.00000000e+00 0.00000000e+00 
4.16666651e+00 2.00000000e+00 0.00000000e+00 
5.00000000e+00 2.00000000e+00 0.00000000e+00 
2.50000000e+00 2.33333325e+00 0.00000000e+00 
3.33333325e+00 2.33333325e+00 0.00000000e+00 
4.16666651e+00 2.33333325e+00 0.00000000e+00 
5.00000000e+00 2.33333325e+00 0.00000000e+00 
2.50000000e+00 2.66666675e+00 0.00000000e+00 
3.33333325e+00 2.66666675e+00 0.00000000e+00 
4.16666651e+00 2.66666675e+00 0.00000000e+00 
5.00000000e+00 2.66666675e+00 0.00000000e+00 
2.50000000e+00 3.00000000e+00 0.00000000e+00 
3.33333325e+00 3.00000000e+00 0.00000000e+00 
4.16666651e+00 3.00000000e+00 0.00000000e+00 
5.00000000e+00 3.00000000e+00 0.00000000e+00 

        </DataArray>
      </Points>
      <Cells>
        <DataArray type="Int32" Name="connectivity" format="ascii">
0 1 5 4
4 5 9 8
8 9 13 12
1 2 6 5
5 6 10 9
9 10 14 13
2 3 7 6
6 7 11 10
10 11 15 14

        </DataArray>
        <DataArray type="Int32" Name="offsets" format="ascii">
4 8 12 16 20 24 28 32 36 
        </DataArray>
        <DataArray type="UInt8" Name="types" format="ascii">
9 9 9 9 9 9 9 9 9 
        </DataArray>
      </Cells>
      <PointData>
        <DataArray type="Float64" Name="u">
          0.00000000e+00 -5.06866720e+00 -3.48140020e+00 -7.52731783e-01 0.00000000e+00 2.19277100e-01 6.76975350e+00 1.85400050e+01 0.00000000e+00 1.46676773e+01 2.60400046e+01 4.53930442e+01 0.00000000e+00 5.17146507e+01 6.09653336e+01 8.23202342e+01 
        </DataArray>
        <DataArray type="Float64" Name="v">
          0.00000000e+00 1.60650917e+01 1.14575114e+01 3.34105692e+00 0.00000000e+00 1.71263612e+01 8.43349884e+00 -1.32725271e+00 0.00000000e+00 1.26635579e+01 4.19294467e+00 -5.18108507e+00 0.00000000e+00 -4.19583036e-01 -4.55467082e+00 -8.51503226e+00 
        </DataArray>
        <DataArray type="Float64" Name="p">
          -6.45713329e+03 -6.42951667e+03 -6.40190006e+03 -6.37428344e+03 -6.81373680e+03 -6.59893075e+03 -6.38412470e+03 -6.16931865e+03 -7.17034031e+03 -6.76834483e+03 -6.36634935e+03 -5.96435387e+03 -7.52694382e+03 -6.93775891e+03 -6.34857400e+03 -5.75938908e+03 
        </DataArray>
      </PointData>
    </Piece>
    <Piece NumberOfPoints="16" NumberOfCells="9">
      <Points>
        <DataArray type="Float64" NumberOfComponents="3" format="ascii">
          2.50000000e+00 3.00000000e+00 0.00000000e+00 
3.33333325e+00 3.00000000e+00 0.00000000e+00 
4.16666651e+00 3.00000000e+00 0.00000000e+00 
5.00000000e+00 3.00000000e+00 0.00000000e+00 
2.50000000e+00 3.33333325e+00 0.00000000e+00 
3.33333325e+00 3.33333325e+00 0.00000000e+00 
4.16666651e+00 3.33333325e+00 0.00000000e+00 
5.00000000e+00 3.33333325e+00 0.00000000e+00 
2.50000000e+00 3.66666675e+00 0.00000000e+00 
3.33333325e+00 3.66666675e+00 0.00000000e+00 
4.16666651e+00 3.66666675e+00 0.00000000e+00 
5.00000000e+00 3.66666675e+00 0.00000000e+00 
2.50000000e+00 4.00000000e+00 0.00000000e+00 
3.33333325e+00 4.00000000e+00 0.00000000e+00 
4.16666651e+00 4.00000000e+00 0.00000000e+00 
5.00000000e+00 4.00000000e+00 0.00000000e+00 

        </DataArray>
      </Points>
      <Cells>
        <DataArray type="Int32" Name="connectivity" format="ascii">
0 1 5 4
4 5 9 8
8 9 13 12
1 2 6 5
5 6 10 9
9 10 14 13
2 3 7 6
6 7 11 10
10 11 15 14

        </DataArray>
        <DataArray type="Int32" Name="offsets" format="ascii">
4 8 12 16 20 24 28 32 36 
        </DataArray>
        <DataArray type="UInt8" Name="types" format="ascii">
9 9 9 9 9 9 9 9 9 
        </DataArray>
      </Cells>
      <PointData>
        <DataArray type="Float64" Name="u">
          0.00000000e+00 5.17146507e+01 6.09653336e+01 8.23202342e+01 9.65687485e+01 1.03267543e+02 1.11879233e+02 1.21093626e+02 1.60493156e+02 1.57859138e+02 1.61203202e+02 1.61467394e+02 2.01877410e+02 1.95699658e+02 1.96846193e+02 1.90613375e+02 
        </DataArray>
        <DataArray type="Float64" Name="v">
          0.00000000e+00 -4.19583036e-01 -4.55467082e+00 -8.51503226e+00 -3.36525344e+00 -1.08049986e+01 -1.10463180e+01 -9.53879900e+00 -3.03975615e+00 -1.12284356e+01 -1.29359276e+01 -1.11166193e+01 -4.30739468e+00 -9.98879629e+00 -1.19047314e+01 -1.24712348e+01 
        </DataArray>
        <DataArray type="Float64" Name="p">
          -7.62917285e+03 -6.94826496e+03 -6.26735708e+03 -5.58644920e+03 -6.99549328e+03 -6.60191856e+03 -6.20834384e+03 -5.81476912e+03 -6.36181372e+03 -6.25557216e+03 -6.14933060e+03 -6.04308904e+03 -5.72813415e+03 -5.90922575e+03 -6.09031735e+03 -6.27140895e+03 
        </DataArray>
      </PointData>
    </Piece>
    <Piece NumberOfPoints="16" NumberOfCells="9">
      <Points>
        <DataArray type="Float64" NumberOfComponents="3" format="ascii">
          2.50000000e+00 4.00000000e+00 0.00000000e+00 
3.33333325e+00 4.00000000e+00 0.00000000e+00 
4.16666651e+00 4.00000000e+00 0.00000000e+00 
5.00000000e+00 4.00000000e+00 0.00000000e+00 
2.50000000e+00 4.33333349e+00 0.00000000e+00 
3.33333325e+00 4.33333349e+00 0.00000000e+00 
4.16666651e+00 4.33333349e+00 0.00000000e+00 
5.00000000e+00 4.33333349e+00 0.00000000e+00 
2.50000000e+00 4.66666651e+00 0.00000000e+00 
3.33333325e+00 4.66666651e+00 0.00000000e+00 
4.16666651e+00 4.66666651e+00 0.00000000e+00 
5.00000000e+00 4.66666651e+00 0.00000000e+00 
2.50000000e+00 5.00000000e+00 0.00000000e+00 
3.33333325e+00 5.00000000e+00 0.00000000e+00 
4.16666651e+00 5.00000000e+00 0.00000000e+00 
5.00000000e+00 5.00000000e+00 0.00000000e+00 

        </DataArray>
      </Points>
      <Cells>
        <DataArray type="Int32" Name="connectivity" format="ascii">
0 1 5 4
4 5 9 8
8 9 13 12
1 2 6 5
5 6 10 9
9 10 14 13
2 3 7 6
6 7 11 10
10 11 15 14

        </DataArray>
        <DataArray type="Int32" Name="offsets" format="ascii">
4 8 12 16 20 24 28 32 36 
        </DataArray>
        <DataArray type="UInt8" Name="types" format="ascii">
9 9 9 9 9 9 9 9 9 
        </DataArray>
      </Cells>
      <PointData>
        <DataArray type="Float64" Name="u">
          2.01877410e+02 1.95699658e+02 1.96846193e+02 1.90613375e+02 2.21646131e+02 2.13784959e+02 2.11950465e+02 2.03359533e+02 2.19440643e+02 2.10669734e+02 2.07067647e+02 1.96779751e+02 1.95592087e+02 1.87068053e+02 1.82873755e+02 1.72351432e+02 
        </DataArray>
        <DataArray type="Float64" Name="v">
          -4.30739468e+00 -9.98879629e+00 -1.19047314e+01 -1.24712348e+01 -3.80770116e+00 -6.34336659e+00 -9.26545807e+00 -1.16142727e+01 -3.87462711e+00 -5.22994919e+00 -6.65747432e+00 -9.07772766e+00 -2.59772530e+00 -6.46242155e-01 -2.80633795e+00 -6.56488254e+00 
        </DataArray>
        <DataArray type="Float64" Name="p">
          -5.53478467e+03 -5.78998241e+03 -6.04518015e+03 -6.30037789e+03 -5.36435470e+03 -5.59383948e+03 -5.82332425e+03 -6.05280902e+03 -5.19392474e+03 -5.39769654e+03 -5.60146834e+03 -5.80524014e+03 -5.02349478e+03 -5.20155361e+03 -5.37961243e+03 -5.55767126e+03 
        </DataArray>
      </PointData>
    </Piece>
    <Piece NumberOfPoints="16" NumberOfCells="9">
      <Points>
        <DataArray type="Float64" NumberOfComponents="3" format="ascii">
          2.50000000e+00 5.00000000e+00 0.00000000e+00 
3.33333325e+00 5.00000000e+00 0.00000000e+00 
4.16666651e+00 5.00000000e+00 0.00000000e+00 
5.00000000e+00 5.00000000e+00 0.00000000e+00 
2.50000000e+00 5.33333349e+00 0.00000000e+00 
3.33333325e+00 5.33333349e+00 0.00000000e+00 
4.16666651e+00 5.33333349e+00 0.00000000e+00 
5.00000000e+00 5.33333349e+00 0.00000000e+00 
2.50000000e+00 5.66666651e+00 0.00000000e+00 
3.33333325e+00 5.66666651e+00 0.00000000e+00 
4.16666651e+00 5.66666651e+00 0.00000000e+00 
5.00000000e+00 5.66666651e+00 0.00000000e+00 
2.50000000e+00 6.00000000e+00 0.00000000e+00 
3.33333325e+00 6.00000000e+00 0.00000000e+00 
4.16666651e+00 6.00000000e+00 0.00000000e+00 
5.00000000e+00 6.00000000e+00 0.00000000e+00 

        </DataArray>
      </Points>
      <Cells>
        <DataArray type="Int32" Name="connectivity" format="ascii">
0 1 5 4
4 5 9 8
8 9 13 12
1 2 6 5
5 6 10 9
9 10 14 13
2 3 7 6
6 7 11 10
10 11 15 14

        </DataArray>
        <DataArray type="Int32" Name="offsets" format="ascii">
4 8 12 16 20 24 28 32 36 
        </DataArray>
        <DataArray type="UInt8" Name="types" format="ascii">
9 9 9 9 9 9 9 9 9 
        </DataArray>
      </Cells>
      <PointData>
        <DataArray type="Float64" Name="u">
          1.95592087e+02 1.87068053e+02 1.82873755e+02 1.72351432e+02 1.51130158e+02 1.44446473e+02 1.40746997e+02 1.34428826e+02 8.57414983e+01 8.89404159e+01 8.97462378e+01 9.18237944e+01 0.00000000e+00 4.16670431e+01 4.40401146e+01 5.73283566e+01 
        </DataArray>
        <DataArray type="Float64" Name="v">
          -2.59772530e+00 -6.46242155e-01 -2.80633795e+00 -6.56488254e+00 -1.24944267e+00 2.98144687e+00 1.24127791e+00 -3.84246964e+00 1.00461773e-01 2.92674779e+00 7.51952677e-02 -3.23176744e+00 0.00000000e+00 -4.25412303e+00 -2.37176315e+00 -5.34926786e-01 
        </DataArray>
        <DataArray type="Float64" Name="p">
          -5.16510973e+03 -5.24717057e+03 -5.32923142e+03 -5.41129227e+03 -5.54358005e+03 -5.40095390e+03 -5.25832775e+03 -5.11570160e+03 -5.92205038e+03 -5.55473723e+03 -5.18742408e+03 -4.82011093e+03 -6.30052070e+03 -5.70852055e+03 -5.11652041e+03 -4.52452026e+03 
        </DataArray>
      </PointData>
    </Piece>
    <Piece NumberOfPoints="16" NumberOfCells="9">
      <Points>
        <DataArray type="Float64" NumberOfComponents="3" format="ascii">
          2.50000000e+00 6.00000000e+00 0.00000000e+00 
3.33333325e+00 6.00000000e+00 0.00000000e+00 
4.16666651e+00 6.00000000e+00 0.00000000e+00 
5.00000000e+00 6.00000000e+00 0.00000000e+00 
2.50000000e+00 6.33333349e+00 0.00000000e+00 
3.33333325e+00 6.33333349e+00 0.00000000e+00 
4.16666651e+00 6.33333349e+00 0.00000000e+00 
5.00000000e+00 6.33333349e+00 0.00000000e+00 
2.50000000e+00 6.66666651e+00 0.00000000e+00 
3.33333325e+00 6.66666651e+00 0.00000000e+00 
4.16666651e+00 6.66666651e+00 0.00000000e+00 
5.00000000e+00 6.66666651e+00 0.00000000e+00 
2.50000000e+00 7.00000000e+00 0.00000000e+00 
3.33333325e+00 7.00000000e+00 0.00000000e+00 
4.16666651e+00 7.00000000e+00 0.00000000e+00 
5.00000000e+00 7.00000000e+00 0.00000000e+00 

        </DataArray>
      </Points>
      <Cells>
        <DataArray type="Int32" Name="connectivity" format="ascii">
0 1 5 4
4 5 9 8
8 9 13 12
1 2 6 5
5 6 10 9
9 10 14 13
2 3 7 6
6 7 11 10
10 11 15 14

        </DataArray>
        <DataArray type="Int32" Name="offsets" format="ascii">
4 8 12 16 20 24 28 32 36 
        </DataArray>
        <DataArray type="UInt8" Name="types" format="ascii">
9 9 9 9 9 9 9 9 9 
        </DataArray>
      </Cells>
      <PointData>
        <DataArray type="Float64" Name="u">
          0.00000000e+00 4.16670431e+01 4.40401146e+01 5.73283566e+01 0.00000000e+00 1.03438539e+01 1.61332304e+01 2.71237753e+01 0.00000000e+00 -1.41428708e+00 1.31030554e+00 6.59855722e+00 0.00000000e+00 -5.49378833e+00 -6.20912741e+00 -7.03170835e+00 
        </DataArray>
        <DataArray type="Float64" Name="v">
          0.00000000e+00 -4.25412303e+00 -2.37176315e+00 -5.34926786e-01 0.00000000e+00 -1.38095151e+01 -7.62749483e+00 -1.26731492e+00 0.00000000e+00 -1.64305906e+01 -9.52583600e+00 -2.83915030e+00 0.00000000e+00 -1.46522979e+01 -1.07082831e+01 -4.91630073e+00 
        </DataArray>
        <DataArray type="Float64" Name="p">
          -6.26375331e+03 -5.76302259e+03 -5.26229187e+03 -4.76156114e+03 -5.95114078e+03 -5.60336349e+03 -5.25558619e+03 -4.90780890e+03 -5.63852825e+03 -5.44370438e+03 -5.24888052e+03 -5.05405665e+03 -5.32591572e+03 -5.28404528e+03 -5.24217485e+03 -5.20030441e+03 
        </DataArray>
      </PointData>
    </Piece>
    <Piece NumberOfPoints="16" NumberOfCells="9">
      <Points>
        <DataArray type="Float64" NumberOfComponents="3" format="ascii">
          2.50000000e+00 7.00000000e+00 0.00000000e+00 
3.33333325e+00 7.00000000e+00 0.00000000e+00 
4.16666651e+00 7.00000000e+00 0.00000000e+00 
5.00000000e+00 7.00000000e+00 0.00000000e+00 
2.50000000e+00 7.33333349e+00 0.00000000e+00 
3.33333325e+00 7.33333349e+00 0.00000000e+00 
4.16666651e+00 7.33333349e+00 0.00000000e+00 
5.00000000e+00 7.33333349e+00 0.00000000e+00 
2.50000000e+00 7.66666651e+00 0.00000000e+00 
3.33333325e+00 7.66666651e+00 0.00000000e+00 
4.16666651e+00 7.66666651e+00 0.00000000e+00 
5.00000000e+00 7.66666651e+00 0.00000000e+00 
2.50000000e+00 8.00000000e+00 0.00000000e+00 
3.33333325e+00 8.00000000e+00 0.00000000e+00 
4.16666651e+00 8.00000000e+00 0.00000000e+00 
5.00000000e+00 8.00000000e+00 0.00000000e+00 

        </DataArray>
      </Points>
      <Cells>
        <DataArray type="Int32" Name="connectivity" format="ascii">
0 1 5 4
4 5 9 8
8 9 13 12
1 2 6 5
5 6 10 9
9 10 14 13
2 3 7 6
6 7 11 10
10 11 15 14

        </DataArray>
        <DataArray type="Int32" Name="offsets" format="ascii">
4 8 12 16 20 24 28 32 36 
        </DataArray>
        <DataArray type="UInt8" Name="types" format="ascii">
9 9 9 9 9 9 9 9 9 
        </DataArray>
      </Cells>
      <PointData>
        <DataArray type="Float64" Name="u">
          0.00000000e+00 -5.49378833e+00 -6.20912741e+00 -7.03170835e+00 0.00000000e+00 -6.97038179e+00 -1.02565243e+01 -1.42811726e+01 0.00000000e+00 -7.01872739e+00 -1.15300159e+01 -1.73767432e+01 0.00000000e+00 -6.19876492e+00 -1.07399808e+01 -1.70527601e+01 
        </DataArray>
        <DataArray type="Float64" Name="v">
          0.00000000e+00 -1.46522979e+01 -1.07082831e+01 -4.91630073e+00 0.00000000e+00 -1.15808520e+01 -9.38344884e+00 -5.16333536e+00 0.00000000e+00 -8.77434290e+00 -7.46675863e+00 -4.48435083e+00 0.00000000e+00 -5.23916472e+00 -4.84746116e+00 -3.11487966e+00 
        </DataArray>
        <DataArray type="Float64" Name="p">
          -5.35731528e+03 -5.27426150e+03 -5.19120773e+03 -5.10815396e+03 -5.27062343e+03 -5.20436636e+03 -5.13810930e+03 -5.07185223e+03 -5.18393158e+03 -5.13447122e+03 -5.08501086e+03 -5.03555051e+03 -5.09723973e+03 -5.06457608e+03 -5.03191243e+03 -4.99924878e+03 
        </DataArray>
      </PointData>
    </Piece>
    <Piece NumberOfPoints="16" NumberOfCells="9">
      <Points>
        <DataArray type="Float64" NumberOfComponents="3" format="ascii">
          2.50000000e+00 8.00000000e+00 0.00000000e+00 
3.33333325e+00 8.00000000e+00 0.00000000e+00 
4.16666651e+00 8.00000000e+00 0.00000000e+00 
5.00000000e+00 8.00000000e+00 0.00000000e+00 
2.50000000e+00 8.33333302e+00 0.00000000e+00 
3.33333325e+00 8.33333302e+00 0.00000000e+00 
4.16666651e+00 8.33333302e+00 0.00000000e+00 
5.00000000e+00 8.33333302e+00 0.00000000e+00 
2.50000000e+00 8.66666698e+00 0.00000000e+00 
3.33333325e+00 8.66666698e+00 0.00000000e+00 
4.16666651e+00 8.66666698e+00 0.00000000e+00 
5.00000000e+00 8.66666698e+00 0.00000000e+00 
2.50000000e+00 9.00000000e+00 0.00000000e+00 
3.33333325e+00 9.00000000e+00 0.00000000e+00 
4.16666651e+00 9.00000000e+00 0.00000000e+00 
5.00000000e+00 9.00000000e+00 0.00000000e+00 

        </DataArray>
      </Points>
      <Cells>
        <DataArray type="Int32" Name="connectivity" format="ascii">
0 1 5 4
4 5 9 8
8 9 13 12
1 2 6 5
5 6 10 9
9 10 14 13
2 3 7 6
6 7 11 10
10 11 15 14

        </DataArray>
        <DataArray type="Int32" Name="offsets" format="ascii">
4 8 12 16 20 24 28 32 36 
        </DataArray>
        <DataArray type="UInt8" Name="types" format="ascii">
9 9 9 9 9 9 9 9 9 
        </DataArray>
      </Cells>
      <PointData>
        <DataArray type="Float64" Name="u">
          0.00000000e+00 -6.19876492e+00 -1.07399808e+01 -1.70527601e+01 0.00000000e+00 -4.76028838e+00 -8.33328820e+00 -1.39292589e+01 0.00000000e+00 -2.70501581e+00 -4.61281380e+00 -8.19878546e+00 0.00000000e+00 0.00000000e+00 0.00000000e+00 0.00000000e+00 
        </DataArray>
        <DataArray type="Float64" Name="v">
          0.00000000e+00 -5.23916472e+00 -4.84746116e+00 -3.11487966e+00 0.00000000e+00 -2.37880215e+00 -2.36281055e+00 -1.50955915e+00 0.00000000e+00 -7.92707206e-01 -8.50228544e-01 -5.40774308e-01 0.00000000e+00 0.00000000e+00 0.00000000e+00 0.00000000e+00 
        </DataArray>
        <DataArray type="Float64" Name="p">
          -5.11295591e+03 -5.07197265e+03 -5.03098938e+03 -4.99000612e+03 -5.12579463e+03 -5.08471548e+03 -5.04363633e+03 -5.00255718e+03 -5.13863336e+03 -5.09745832e+03 -5.05628328e+03 -5.01510824e+03 -5.15147208e+03 -5.11020115e+03 -5.06893022e+03 -5.02765929e+03 
        </DataArray>
      </PointData>
    </Piece>
    <Piece NumberOfPoints="16" NumberOfCells="9">
      <Points>
        <DataArray type="Float64" NumberOfComponents="3" format="ascii">
          5.00000000e+00 0.00000000e+00 0.00000000e+00 
5.83333349e+00 0.00000000e+00 0.00000000e+00 
6.66666651e+00 0.00000000e+00 0.00000000e+00 
7.50000000e+00 0.00000000e+00 0.00000000e+00 
5.00000000e+00 3.33333343e-01 0.00000000e+00 
5.83333349e+00 3.33333343e-01 0.00000000e+00 
6.66666651e+00 3.33333343e-01 0.00000000e+00 
7.50000000e+00 3.33333343e-01 0.00000000e+00 
5.00000000e+00 6.66666687e-01 0.00000000e+00 
5.83333349e+00 6.66666687e-01 0.00000000e+00 
6.66666651e+00 6.66666687e-01 0.00000000e+00 
7.50000000e+00 6.66666687e-01 0.00000000e+00 
5.00000000e+00 1.00000000e+00 0.00000000e+00 
5.83333349e+00 1.00000000e+00 0.00000000e+00 
6.66666651e+00 1.00000000e+00 0.00000000e+00 
7.50000000e+00 1.00000000e+00 0.00000000e+00 

        </DataArray>
      </Points>
      <Cells>
        <DataArray type="Int32" Name="connectivity" format="ascii">
0 1 5 4
4 5 9 8
8 9 13 12
1 2 6 5
5 6 10 9
9 10 14 13
2 3 7 6
6 7 11 10
10 11 15 14

        </DataArray>
        <DataArray type="Int32" Name="offsets" format="ascii">
4 8 12 16 20 24 28 32 36 
        </DataArray>
        <DataArray type="UInt8" Name="types" format="ascii">
9 9 9 9 9 9 9 9 9 
        </DataArray>
      </Cells>
      <PointData>
        <DataArray type="Float64" Name="u">