<?xml version="1.0"?>
<VTKFile type="UnstructuredGrid" version="0.1" byte_order="LittleEndian">
  <UnstructuredGrid>
    <Piece NumberOfPoints="16" NumberOfCells="9">
      <Points>
        <DataArray type="Float64" NumberOfComponents="3" format="ascii">
          0.00000000e+00 3.00000000e+00 0.00000000e+00 
8.33333313e-01 3.00000000e+00 0.00000000e+00 
1.66666663e+00 3.00000000e+00 0.00000000e+00 
2.50000000e+00 3.00000000e+00 0.00000000e+00 
0.00000000e+00 3.33333325e+00 0.00000000e+00 
8.33333313e-01 3.33333325e+00 0.00000000e+00 
1.66666663e+00 3.33333325e+00 0.00000000e+00 
2.50000000e+00 3.33333325e+00 0.00000000e+00 
0.00000000e+00 3.66666675e+00 0.00000000e+00 
8.33333313e-01 3.66666675e+00 0.00000000e+00 
1.66666663e+00 3.66666675e+00 0.00000000e+00 
2.50000000e+00 3.66666675e+00 0.00000000e+00 
0.00000000e+00 4.00000000e+00 0.00000000e+00 
8.33333313e-01 4.00000000e+00 0.00000000e+00 
1.66666663e+00 4.00000000e+00 0.00000000e+00 
2.50000000e+00 4.00000000e+00 0.00000000e+00 

        </DataArray>
      </Points>
      <Cells>
        <DataArray type="Int32" Name="connectivity" format="ascii">
0 1 5 4
4 5 9 8
8 9 13 12
1 2 6 5
5 6 10 9
9 10 14 13
2 3 7 6
6 7 11 10
10 11 15 14

        </DataArray>
        <DataArray type="Int32" Name="offsets" format="ascii">
4 8 12 16 20 24 28 32 36 
        </DataArray>
        <DataArray type="UInt8" Name="types" format="ascii">
9 9 9 9 9 9 9 9 9 
        </DataArray>
      </Cells>
      <PointData>
        <DataArray type="Float64" Name="u">
          0.00000000e+00 0.00000000e+00 0.00000000e+00 0.00000000e+00 8.88888889e+01 8.94696353e+01 8.95000628e+01 9.10786937e+01 1.55555556e+02 1.55370913e+02 1.56263274e+02 1.55823979e+02 2.00000000e+02 1.98984623e+02 2.00364655e+02 1.98757336e+02 
        </DataArray>
        <DataArray type="Float64" Name="v">
          0.00000000e+00 0.00000000e+00 0.00000000e+00 0.00000000e+00 0.00000000e+00 -2.43316348e-01 -4.08737265e-02 -1.69856290e+00 0.00000000e+00 -2.13849663e-01 -2.39975964e-01 -8.70744241e-01 0.00000000e+00 -3.03017904e-01 -2.38320703e-01 -8.28792717e-01 
        </DataArray>
        <DataArray type="Float64" Name="p">
          -2.01958257e+03 -3.42472010e+03 -4.82985763e+03 -6.23499516e+03 -2.02980232e+03 -3.42200899e+03 -4.81421566e+03 -6.20642233e+03 -2.04002207e+03 -3.41929788e+03 -4.79857368e+03 -6.17784949e+03 -2.05024182e+03 -3.41658676e+03 -4.78293171e+03 -6.14927666e+03 
        </DataArray>
      </PointData>
    </Piece>
    <Piece NumberOfPoints="16" NumberOfCells="9">
      <Points>
        <DataArray type="Float64" NumberOfComponents="3" format="ascii">
          0.00000000e+00 4.00000000e+00 0.00000000e+00 
8.33333313e-01 4.00000000e+00 0.00000000e+00 
1.66666663e+00 4.00000000e+00 0.00000000e+00 
2.50000000e+00 4.00000000e+00 0.00000000e+00 
0.00000000e+00 4.33333349e+00 0.00000000e+00 
8.33333313e-01 4.33333349e+00 0.00000000e+00 
1.66666663e+00 4.33333349e+00 0.00000000e+00 
2.50000000e+00 4.33333349e+00 0.00000000e+00 
0.00000000e+00 4.66666651e+00 0.00000000e+00 
8.33333313e-01 4.66666651e+00 0.00000000e+00 
1.66666663e+00 4.66666651e+00 0.00000000e+00 
2.50000000e+00 4.66666651e+00 0.00000000e+00 
0.00000000e+00 5.00000000e+00 0.00000000e+00 
8.33333313e-01 5.00000000e+00 0.00000000e+00 
1.66666663e+00 5.00000000e+00 0.00000000e+00 
2.50000000e+00 5.00000000e+00 0.00000000e+00 

        </DataArray>
      </Points>
      <Cells>
        <DataArray type="Int32" Name="connectivity" format="ascii">
0 1 5 4
4 5 9 8
8 9 13 12
1 2 6 5
5 6 10 9
9 10 14 13
2 3 7 6
6 7 11 10
10 11 15 14

        </DataArray>
        <DataArray type="Int32" Name="offsets" format="ascii">
4 8 12 16 20 24 28 32 36 
        </DataArray>
        <DataArray type="UInt8" Name="types" format="ascii">
9 9 9 9 9 9 9 9 9 
        </DataArray>
      </Cells>
      <PointData>
        <DataArray type="Float64" Name="u">
          2.00000000e+02 1.98984623e+02 2.00364655e+02 1.98757336e+02 2.22222222e+02 2.20960078e+02 2.22203185e+02 2.20592436e+02 2.22222222e+02 2.20960078e+02 2.22203185e+02 2.20592436e+02 2.00000000e+02 1.98984623e+02 2.00364655e+02 1.98757336e+02 
        </DataArray>
        <DataArray type="Float64" Name="v">
          0.00000000e+00 -3.03017904e-01 -2.38320703e-01 -8.28792717e-01 0.00000000e+00 -1.33871910e-02 -1.02581470e-01 3.70552281e-02 0.00000000e+00 1.33871910e-02 1.02581470e-01 -3.70552281e-02 0.00000000e+00 3.03017904e-01 2.38320703e-01 8.28792717e-01 
        </DataArray>
        <DataArray type="Float64" Name="p">
          -2.02899751e+03 -3.40258918e+03 -4.77618085e+03 -6.14977251e+03 -2.02899751e+03 -3.40258918e+03 -4.77618085e+03 -6.14977251e+03 -2.02899751e+03 -3.40258918e+03 -4.77618085e+03 -6.14977251e+03 -2.02899751e+03 -3.40258918e+03 -4.77618085e+03 -6.14977251e+03 
        </DataArray>
      </PointData>
    </Piece>
    <Piece NumberOfPoints="16" NumberOfCells="9">
      <Points>
        <DataArray type="Float64" NumberOfComponents="3" format="ascii">
          0.00000000e+00 5.00000000e+00 0.00000000e+00 
8.33333313e-01 5.00000000e+00 0.00000000e+00 
1.66666663e+00 5.00000000e+00 0.00000000e+00 
2.50000000e+00 5.00000000e+00 0.00000000e+00 
0.00000000e+00 5.33333349e+00 0.00000000e+00 
8.33333313e-01 5.33333349e+00 0.00000000e+00 
1.66666663e+00 5.33333349e+00 0.00000000e+00 
2.50000000e+00 5.33333349e+00 0.00000000e+00 
0.00000000e+00 5.66666651e+00 0.00000000e+00 
8.33333313e-01 5.66666651e+00 0.00000000e+00 
1.66666663e+00 5.66666651e+00 0.00000000e+00 
2.50000000e+00 5.66666651e+00 0.00000000e+00 
0.00000000e+00 6.00000000e+00 0.00000000e+00 
8.33333313e-01 6.00000000e+00 0.00000000e+00 
1.66666663e+00 6.00000000e+00 0.00000000e+00 
2.50000000e+00 6.00000000e+00 0.00000000e+00 

        </DataArray>
      </Points>
      <Cells>
        <DataArray type="Int32" Name="connectivity" format="ascii">
0 1 5 4
4 5 9 8
8 9 13 12
1 2 6 5
5 6 10 9
9 10 14 13
2 3 7 6
6 7 11 10
10 11 15 14

        </DataArray>
        <DataArray type="Int32" Name="offsets" format="ascii">
4 8 12 16 20 24 28 32 36 
        </DataArray>
        <DataArray type="UInt8" Name="types" format="ascii">
9 9 9 9 9 9 9 9 9 
        </DataArray>
      </Cells>
      <PointData>
        <DataArray type="Float64" Name="u">
          2.00000000e+02 1.98984623e+02 2.00364655e+02 1.98757336e+02 1.55555556e+02 1.55370913e+02 1.56263274e+02 1.55823979e+02 8.88888889e+01 8.94696353e+01 8.95000628e+01 9.10786937e+01 0.00000000e+00 0.00000000e+00 0.00000000e+00 0.00000000e+00 
        </DataArray>
        <DataArray type="Float64" Name="v">
          0.00000000e+00 3.03017904e-01 2.38320703e-01 8.28792717e-01 0.00000000e+00 2.13849663e-01 2.39975964e-01 8.70744241e-01 0.00000000e+00 2.43316348e-01 4.08737264e-02 1.69856290e+00 0.00000000e+00 0.00000000e+00 0.00000000e+00 0.00000000e+00 
        </DataArray>
        <DataArray type="Float64" Name="p">
          -2.05024182e+03 -3.41658676e+03 -4.78293171e+03 -6.14927666e+03 -2.04002207e+03 -3.41929788e+03 -4.79857368e+03 -6.17784949e+03 -2.02980232e+03 -3.42200899e+03 -4.81421566e+03 -6.20642233e+03 -2.01958257e+03 -3.42472010e+03 -4.82985763e+03 -6.23499516e+03 
        </DataArray>
      </PointData>
    </Piece>
    <Piece NumberOfPoints="16" NumberOfCells="9">
      <Points>
        <DataArray type="Float64" NumberOfComponents="3" format="ascii">
          2.50000000e+00 0.00000000e+00 0.00000000e+00 
3.33333325e+00 0.00000000e+00 0.00000000e+00 
4.16666651e+00 0.00000000e+00 0.00000000e+00 
5.00000000e+00 0.00000000e+00 0.00000000e+00 
2.50000000e+00 3.33333343e-01 0.00000000e+00 
3.33333325e+00 3.33333343e-01 0.00000000e+00 
4.16666651e+00 3.33333343e-01 0.00000000e+00 
5.00000000e+00 3.33333343e-01 0.00000000e+00 
2.50000000e+00 6.66666687e-01 0.00000000e+00 
3.33333325e+00 6.66666687e-01 0.00000000e+00 
4.16666651e+00 6.66666687e-01 0.00000000e+00 
5.00000000e+00 6.66666687e-01 0.00000000e+00 
2.50000000e+00 1.00000000e+00 0.00000000e+00 
3.33333325e+00 1.00000000e+00 0.00000000e+00 
4.16666651e+00 1.00000000e+00 0.00000000e+00 
5.00000000e+00 1.00000000e+00 0.00000000e+00 

        </DataArray>
      </Points>
      <Cells>
        <DataArray type="Int32" Name="connectivity" format="ascii">
0 1 5 4
4 5 9 8
8 9 13 12
1 2 6 5
5 6 10 9
9 10 14 13
2 3 7 6
6 7 11 10
10 11 15 14

        </DataArray>
        <DataArray type="Int32" Name="offsets" format="ascii">
4 8 12 16 20 24 28 32 36 
        </DataArray>
        <DataArray type="UInt8" Name="types" format="ascii">
9 9 9 9 9 9 9 9 9 
        </DataArray>
      </Cells>
      <PointData>
        <DataArray type="Float64" Name="u">
          0.00000000e+00 0.00000000e+00 0.00000000e+00 0.00000000e+00 0.00000000e+00 -3.03083537e+00 -5.10326354e+00 -9.17282976e+00 0.00000000e+00 -5.27326367e+00 -9.11528180e+00 -1.54223676e+01 0.00000000e+00 -6.75897798e+00 -1.15301136e+01 -1.84362448e+01 
        </DataArray>
        <DataArray type="Float64" Name="v">
          0.00000000e+00 0.00000000e+00 0.00000000e+00 0.00000000e+00 0.00000000e+00 8.88884464e-01 9.53372306e-01 6.54982470e-01 0.00000000e+00 2.62698458e+00 2.62409490e+00 1.74356700e+00 0.00000000e+00 5.74779520e+00 5.37778598e+00 3.51199124e+00 
        </DataArray>
        <DataArray type="Float64" Name="p">
          -5.81574870e+03 -5.76528292e+03 -5.71481713e+03 -5.66435134e+03 -5.80224841e+03 -5.75169577e+03 -5.70114313e+03 -5.65059049e+03 -5.78874811e+03 -5.73810862e+03 -5.68746914e+03 -5.63682965e+03 -5.77524781e+03 -5.72452148e+03 -5.67379514e+03 -5.62306881e+03 
        </DataArray>
      </PointData>
    </Piece>
    <Piece NumberOfPoints="16" NumberOfCells="9">
      <Points>
        <DataArray type="Float64" NumberOfComponents="3" format="ascii">
          2.50000000e+00 1.00000000e+00 0.00000000e+00 
3.33333325e+00 1.00000000e+00 0.00000000e+00 
4.16666651e+00 1.00000000e+00 0.00000000e+00 
5.00000000e+00 1.00000000e+00 0.00000000e+00 
2.50000000e+00 1.33333337e+00 0.00000000e+00 
3.33333325e+00 1.33333337e+00 0.00000000e+00 
4.16666651e+00 1.33333337e+00 0.00000000e+00 
5.00000000e+00 1.33333337e+00 0.00000000e+00 
2.50000000e+00 1.66666663e+00 0.00000000e+00 
3.33333325e+00 1.66666663e+00 0.00000000e+00 
4.16666651e+00 1.66666663e+00 0.00000000e+00 
5.00000000e+00 1.66666663e+00 0.00000000e+00 
2.50000000e+00 2.00000000e+00 0.00000000e+00 
3.33333325e+00 2.00000000e+00 0.00000000e+00 
4.16666651e+00 2.00000000e+00 0.00000000e+00 
5.00000000e+00 2.00000000e+00 0.00000000e+00 

        </DataArray>
      </Points>
      <Cells>
        <DataArray type="Int32" Name="connectivity" format="ascii">
0 1 5 4
4 5 9 8
8 9 13 12
1 2 6 5
5 6 10 9
9 10 14 13
2 3 7 6
6 7 11 10
10 11 15 14

        </DataArray>
        <DataArray type="Int32" Name="offsets" format="ascii">
4 8 12 16 20 24 28 32 36 
        </DataArray>
        <DataArray type="UInt8" Name="types" format="ascii">
9 9 9 9 9 9 9 9 9 
        </DataArray>
      </Cells>
      <PointData>
        <DataArray type="Float64" Name="u">
          0.00000000e+00 -6.75897798e+00 -1.15301136e+01 -1.84362448e+01 0.00000000e+00 -7.48363896e+00 -1.19886794e+01 -1.80170299e+01 0.00000000e+00 -7.20334141e+00 -1.00473506e+01 -1.35479812e+01 0.00000000e+00 -5.34134278e+00 -4.99108854e+00 -4.31642939e+00 
        </DataArray>
        <DataArray type="Float64" Name="v">
          0.00000000e+00 5.74779520e+00 5.37778598e+00 3.51199124e+00 0.00000000e+00 9.50590595e+00 8.17435742e+00 4.84298443e+00 0.00000000e+00 1.23955467e+01 1.00829949e+01 5.24985687e+00 0.00000000e+00 1.53872897e+01 1.11182945e+01 4.35106511e+00 
        </DataArray>
        <DataArray type="Float64" Name="p">
          -5.75954157e+03 -5.71823662e+03 -5.67693167e+03 -5.63562671e+03 -5.85321346e+03 -5.79647966e+03 -5.73974587e+03 -5.68301208e+03 -5.94688534e+03 -5.87472271e+03 -5.80256008e+03 -5.73039744e+03 -6.04055722e+03 -5.95296575e+03 -5.86537428e+03 -5.77778281e+03 
        </DataArray>
      </PointData>
    </Piece>
    <Piece NumberOfPoints="16" NumberOfCells="9">
      <Points>
        <DataArray type="Float64" NumberOfComponents="3" format="ascii">
          2.50000000e+00 2.00000000e+00 0.00000000e+00 
3.33333325e+00 2.00000000e+00 0.00000000e+00 
4.16666651e+00 2.00000000e+00 0.00000000e+00 
5.00000000e+00 2.00000000e+00 0.00000000e+00 
2.50000000e+00 2.33333325e+00 0.00000000e+00 
3.33333325e+00 2.33333325e+00 0.00000000e+00 
4.16666651e+00 2.33333325e+00 0.00000000e+00 
5.00000000e+00 2.33333325e+00 0.00000000e+00 
2.50000000e+00 2.66666675e+00 0.00000000e+00 
3.33333325e+00 2.66666675e+00 0.00000000e+00 
4.16666651e+00 2.66666675e+00 0.00000000e+00 
5.00000000e+00 2.66666675e+00 0.00000000e+00 
2.50000000e+00 3.00000000e+00 0.00000000e+00 
3.33333325e+00 3.00000000e+00 0.00000000e+00 
4.16666651e+00 3.00000000e+00 0.00000000e+00 
5.00000000e+00 3.00000000e+00 0.00000000e+00 

        </DataArray>
      </Points>
      <Cells>
        <DataArray type="Int32" Name="connectivity" format="ascii">
0 1 5 4
4 5 9 8
8 9 13 12
1 2 6 5
5 6 10 9
9 10 14 13
2 3 7 6
6 7 11 10
10 11 15 14

        </DataArray>
        <DataArray type="Int32" Name="offsets" format="ascii">
4 8 12 16 20 24 28 32 36 
        </DataArray>
        <DataArray type="UInt8" Name="types" format="ascii">
9 9 9 9 9 9 9 9 9 
        </DataArray>
      </Cells>
      <PointData>
        <DataArray type="Float64" Name="u">
          0.00000000e+00 -5.34134278e+00 -4.99108854e+00 -4.31642939e+00 0.00000000e+00 -6.51727417e-01 3.86544517e+00 1.20222259e+01 0.00000000e+00 1.24522345e+01 2.08457728e+01 3.56626748e+01 0.00000000e+00 4.65911008e+01 5.21374856e+01 6.92570697e+01 
        </DataArray>
        <DataArray type="Float64" Name="v">
          0.00000000e+00 1.53872897e+01 1.11182945e+01 4.35106511e+00 0.00000000e+00 1.68353439e+01 9.11881730e+00 1.14971479e+00 0.00000000e+00 1.33358861e+01 6.15456472e+00 -1.47580826e+00 0.00000000e+00 2.07338124e+00 -7.24529532e-01 -3.37687431e+00 
        </DataArray>
        <DataArray type="Float64" Name="p">
          -6.00287639e+03 -5.96369260e+03 -5.92450880e+03 -5.88532500e+03 -6.33997550e+03 -6.13061696e+03 -5.92125841e+03 -5.71189987e+03 -6.67707461e+03 -6.29754132e+03 -5.91800803e+03 -5.53847474e+03 -7.01417372e+03 -6.46446568e+03 -5.91475764e+03 -5.36504960e+03 
        </DataArray>
      </PointData>
    </Piece>
    <Piece NumberOfPoints="16" NumberOfCells="9">
      <Points>
        <DataArray type="Float64" NumberOfComponents="3" format="ascii">
          2.50000000e+00 3.00000000e+00 0.00000000e+00 
3.33333325e+00 3.00000000e+00 0.00000000e+00 
4.16666651e+00 3.00000000e+00 0.00000000e+00 
5.00000000e+00 3.00000000e+00 0.00000000e+00 
2.50000000e+00 3.33333325e+00 0.00000000e+00 
3.33333325e+00 3.33333325e+00 0.00000000e+00 
4.16666651e+00 3.33333325e+00 0.00000000e+00 
5.00000000e+00 3.33333325e+00 0.00000000e+00 
2.50000000e+00 3.66666675e+00 0.00000000e+00 
3.33333325e+00 3.66666675e+00 0.00000000e+00 
4.16666651e+00 3.66666675e+00 0.00000000e+00 
5.00000000e+00 3.66666675e+00 0.00000000e+00 
2.50000000e+00 4.00000000e+00 0.00000000e+00 
3.33333325e+00 4.00000000e+00 0.00000000e+00 
4.16666651e+00 4.00000000e+00 0.00000000e+00 
5.00000000e+00 4.00000000e+00 0.00000000e+00 

        </DataArray>
      </Points>
      <Cells>
        <DataArray type="Int32" Name="connectivity" format="ascii">
0 1 5 4
4 5 9 8
8 9 13 12
1 2 6 5
5 6 10 9
9 10 14 13
2 3 7 6
6 7 11 10
10 11 15 14

        </DataArray>
        <DataArray type="Int32" Name="offsets" format="ascii">
4 8 12 16 20 24 28 32 36 
        </DataArray>
        <DataArray type="UInt8" Name="types" format="ascii">
9 9 9 9 9 9 9 9 9 
        </DataArray>
      </Cells>
      <PointData>
        <DataArray type="Float64" Name="u">
          0.00000000e+00 4.65911008e+01 5.21374856e+01 6.92570697e+01 9.10786937e+01 9.60356009e+01 1.00594127e+02 1.06205075e+02 1.55823979e+02 1.51241500e+02 1.51084383e+02 1.48334578e+02 1.98757336e+02 1.91606017e+02 1.90224311e+02 1.82451486e+02 
        </DataArray>
        <DataArray type="Float64" Name="v">
          0.00000000e+00 2.07338124e+00 -7.24529532e-01 -3.37687431e+00 -1.69856290e+00 -6.63906118e+00 -5.08962478e+00 -2.41299423e+00 -8.70744241e-01 -6.93888536e+00 -6.73223542e+00 -2.99953958e+00 -8.28792717e-01 -4.52971631e+00 -4.26155610e+00 -2.47257230e+00 
        </DataArray>
        <DataArray type="Float64" Name="p">
          -7.07892589e+03 -6.43583907e+03 -5.79275225e+03 -5.14966543e+03 -6.58086377e+03 -6.19652194e+03 -5.81218011e+03 -5.42783828e+03 -6.08280166e+03 -5.95720482e+03 -5.83160798e+03 -5.70601114e+03 -5.58473955e+03 -5.71788770e+03 -5.85103585e+03 -5.98418399e+03 
        </DataArray>
      </PointData>
    </Piece>
    <Piece NumberOfPoints="16" NumberOfCells="9">
      <Points>
        <DataArray type="Float64" NumberOfComponents="3" format="ascii">
          2.50000000e+00 4.00000000e+00 0.00000000e+00 
3.33333325e+00 4.00000000e+00 0.00000000e+00 
4.16666651e+00 4.00000000e+00 0.00000000e+00 
5.00000000e+00 4.00000000e+00 0.00000000e+00 
2.50000000e+00 4.33333349e+00 0.00000000e+00 
3.33333325e+00 4.33333349e+00 0.00000000e+00 
4.16666651e+00 4.33333349e+00 0.00000000e+00 
5.00000000e+00 4.33333349e+00 0.00000000e+00 
2.50000000e+00 4.66666651e+00 0.00000000e+00 
3.33333325e+00 4.66666651e+00 0.00000000e+00 
4.16666651e+00 4.66666651e+00 0.00000000e+00 
5.00000000e+00 4.66666651e+00 0.00000000e+00 
2.50000000e+00 5.00000000e+00 0.00000000e+00 
3.33333325e+00 5.00000000e+00 0.00000000e+00 
4.16666651e+00 5.00000000e+00 0.00000000e+00 
5.00000000e+00 5.00000000e+00 0.00000000e+00 

        </DataArray>
      </Points>
      <Cells>
        <DataArray type="Int32" Name="connectivity" format="ascii">
0 1 5 4
4 5 9 8
8 9 13 12
1 2 6 5
5 6 10 9
9 10 14 13
2 3 7 6
6 7 11 10
10 11 15 14

        </DataArray>
        <DataArray type="Int32" Name="offsets" format="ascii">
4 8 12 16 20 24 28 32 36 
        </DataArray>
        <DataArray type="UInt8" Name="types" format="ascii">
9 9 9 9 9 9 9 9 9 
        </DataArray>
      </Cells>
      <PointData>
        <DataArray type="Float64" Name="u">
          1.98757336e+02 1.91606017e+02 1.90224311e+02 1.82451486e+02 2.20592436e+02 2.12491222e+02 2.09995503e+02 2.01298401e+02 2.20592436e+02 2.12491222e+02 2.09995503e+02 2.01298401e+02 1.98757336e+02 1.91606017e+02 1.90224311e+02 1.82451486e+02 
        </DataArray>
        <DataArray type="Float64" Name="v">
          -8.28792717e-01 -4.52971631e+00 -4.26155610e+00 -2.47257230e+00 3.70552281e-02 -5.49532230e-01 -1.26603404e+00 -1.17464795e+00 -3.70552281e-02 5.49532230e-01 1.26603404e+00 1.17464795e+00 8.28792717e-01 4.52971631e+00 4.26155610e+00 2.47257230e+00 
        </DataArray>
        <DataArray type="Float64" Name="p">
          -5.41721944e+03 -5.63872905e+03 -5.86023867e+03 -6.08174829e+03 -5.41721944e+03 -5.63872905e+03 -5.86023867e+03 -6.08174829e+03 -5.41721944e+03 -5.63872905e+03 -5.86023867e+03 -6.08174829e+03 -5.41721944e+03 -5.63872905e+03 -5.86023867e+03 -6.08174829e+03 
        </DataArray>
      </PointData>
    </Piece>
    <Piece NumberOfPoints="16" NumberOfCells="9">
      <Points>
        <DataArray type="Float64" NumberOfComponents="3" format="ascii">
          2.50000000e+00 5.00000000e+00 0.00000000e+00 
3.33333325e+00 5.00000000e+00 0.00000000e+00 
4.16666651e+00 5.00000000e+00 0.00000000e+00 
5.00000000e+00 5.00000000e+00 0.00000000e+00 
2.50000000e+00 5.33333349e+00 0.00000000e+00 
3.33333325e+00 5.33333349e+00 0.00000000e+00 
4.16666651e+00 5.33333349e+00 0.00000000e+00 
5.00000000e+00 5.33333349e+00 0.00000000e+00 
2.50000000e+00 5.66666651e+00 0.00000000e+00 
3.33333325e+00 5.66666651e+00 0.00000000e+00 
4.16666651e+00 5.66666651e+00 0.00000000e+00 
5.00000000e+00 5.66666651e+00 0.00000000e+00 
2.50000000e+00 6.00000000e+00 0.00000000e+00 
3.33333325e+00 6.00000000e+00 0.00000000e+00 
4.16666651e+00 6.00000000e+00 0.00000000e+00 
5.00000000e+00 6.00000000e+00 0.00000000e+00 

        </DataArray>
      </Points>
      <Cells>
        <DataArray type="Int32" Name="connectivity" format="ascii">
0 1 5 4
4 5 9 8
8 9 13 12
1 2 6 5
5 6 10 9
9 10 14 13
2 3 7 6
6 7 11 10
10 11 15 14

        </DataArray>
        <DataArray type="Int32" Name="offsets" format="ascii">
4 8 12 16 20 24 28 32 36 
        </DataArray>
        <DataArray type="UInt8" Name="types" format="ascii">
9 9 9 9 9 9 9 9 9 
        </DataArray>
      </Cells>
      <PointData>
        <DataArray type="Float64" Name="u">
          1.98757336e+02 1.91606017e+02 1.90224311e+02 1.82451486e+02 1.55823979e+02 1.51241500e+02 1.51084383e+02 1.48334578e+02 9.10786937e+01 9.60356009e+01 1.00594127e+02 1.06205075e+02 0.00000000e+00 4.65911008e+01 5.21374856e+01 6.92570697e+01 
        </DataArray>
        <DataArray type="Float64" Name="v">
          8.28792717e-01 4.52971631e+00 4.26155610e+00 2.47257230e+00 8.70744241e-01 6.93888536e+00 6.73223542e+00 2.99953958e+00 1.69856290e+00 6.63906118e+00 5.08962478e+00 2.41299423e+00 0.00000000e+00 -2.07338124e+00 7.24529532e-01 3.37687431e+00 
        </DataArray>
        <DataArray type="Float64" Name="p">
          -5.58473955e+03 -5.71788770e+03 -5.85103585e+03 -5.98418399e+03 -6.08280166e+03 -5.95720482e+03 -5.83160798e+03 -5.70601114e+03 -6.58086377e+03 -6.19652194e+03 -5.81218011e+03 -5.42783828e+03 -7.07892589e+03 -6.43583907e+03 -5.79275225e+03 -5.14966543e+03 
        </DataArray>
      </PointData>
    </Piece>
    <Piece NumberOfPoints="16" NumberOfCells="9">
      <Points>
        <DataArray type="Float64" NumberOfComponents="3" format="ascii">
          2.50000000e+00 6.00000000e+00 0.00000000e+00 
3.33333325e+00 6.00000000e+00 0.00000000e+00 
4.16666651e+00 6.00000000e+00 0.00000000e+00 
5.00000000e+00 6.00000000e+00 0.00000000e+00 
2.50000000e+00 6.33333349e+00 0.00000000e+00 
3.33333325e+00 6.33333349e+00 0.00000000e+00 
4.16666651e+00 6.33333349e+00 0.00000000e+00 
5.00000000e+00 6.33333349e+00 0.00000000e+00 
2.50000000e+00 6.66666651e+00 0.00000000e+00 
3.33333325e+00 6.66666651e+00 0.00000000e+00 
4.16666651e+00 6.66666651e+00 0.00000000e+00 
5.00000000e+00 6.66666651e+00 0.00000000e+00 
2.50000000e+00 7.00000000e+00 0.00000000e+00 
3.33333325e+00 7.00000000e+00 0.00000000e+00 
4.16666651e+00 7.00000000e+00 0.00000000e+00 
5.00000000e+00 7.00000000e+00 0.00000000e+00 

        </DataArray>
      </Points>
      <Cells>
        <DataArray type="Int32" Name="connectivity" format="ascii">
0 1 5 4
4 5 9 8
8 9 13 12
1 2 6 5
5 6 10 9
9 10 14 13
2 3 7 6
6 7 11 10
10 11 15 14

        </DataArray>
        <DataArray type="Int32" Name="offsets" format="ascii">
4 8 12 16 20 24 28 32 36 
        </DataArray>
        <DataArray type="UInt8" Name="types" format="ascii">
9 9 9 9 9 9 9 9 9 
        </DataArray>
      </Cells>
      <PointData>
        <DataArray type="Float64" Name="u">
          0.00000000e+00 4.65911008e+01 5.21374856e+01 6.92570697e+01 0.00000000e+00 1.24522345e+01 2.08457728e+01 3.56626748e+01 0.00000000e+00 -6.51727417e-01 3.86544517e+00 1.20222259e+01 0.00000000e+00 -5.34134278e+00 -4.99108854e+00 -4.31642939e+00 
        </DataArray>
        <DataArray type="Float64" Name="v">
          0.00000000e+00 -2.07338124e+00 7.24529532e-01 3.37687431e+00 0.00000000e+00 -1.33358861e+01 -6.15456472e+00 1.47580826e+00 0.00000000e+00 -1.68353439e+01 -9.11881730e+00 -1.14971479e+00 0.00000000e+00 -1.53872897e+01 -1.11182945e+01 -4.35106511e+00 
        </DataArray>
        <DataArray type="Float64" Name="p">
          -7.01417372e+03 -6.46446568e+03 -5.91475764e+03 -5.36504960e+03 -6.67707461e+03 -6.29754132e+03 -5.91800803e+03 -5.53847474e+03 -6.33997550e+03 -6.13061696e+03 -5.92125841e+03 -5.71189987e+03 -6.00287639e+03 -5.96369260e+03 -5.92450880e+03 -5.88532500e+03 
        </DataArray>
      </PointData>
    </Piece>
    <Piece NumberOfPoints="16" NumberOfCells="9">
      <Points>
        <DataArray type="Float64" NumberOfComponents="3" format="ascii">
          2.50000000e+00 7.00000000e+00 0.00000000e+00 
3.33333325e+00 7.00000000e+00 0.00000000e+00 
4.16666651e+00 7.00000000e+00 0.00000000e+00 
5.00000000e+00 7.00000000e+00 0.00000000e+00 
2.50000000e+00 7.33333349e+00 0.00000000e+00 
3.33333325e+00 7.33333349e+00 0.00000000e+00 
4.16666651e+00 7.33333349e+00 0.00000000e+00 
5.00000000e+00 7.33333349e+00 0.00000000e+00 
2.50000000e+00 7.66666651e+00 0.00000000e+00 
3.33333325e+00 7.66666651e+00 0.00000000e+00 
4.16666651e+00 7.66666651e+00 0.00000000e+00 
5.00000000e+00 7.66666651e+00 0.00000000e+00 
2.50000000e+00 8.00000000e+00 0.00000000e+00 
3.33333325e+00 8.00000000e+00 0.00000000e+00 
4.16666651e+00 8.00000000e+00 0.00000000e+00 
5.00000000e+00 8.00000000e+00 0.00000000e+00 

        </DataArray>
      </Points>
      <Cells>
        <DataArray type="Int32" Name="connectivity" format="ascii">
0 1 5 4
4 5 9 8
8 9 13 12
1 2 6 5
5 6 10 9
9 10 14 13
2 3 7 6
6 7 11 10
10 11 15 14

        </DataArray>
        <DataArray type="Int32" Name="offsets" format="ascii">
4 8 12 16 20 24 28 32 36 
        </DataArray>
        <DataArray type="UInt8" Name="types" format="ascii">
9 9 9 9 9 9 9 9 9 
        </DataArray>
      </Cells>
      <PointData>
        <DataArray type="Float64" Name="u">
          0.00000000e+00 -5.34134278e+00 -4.99108854e+00 -4.31642939e+00 0.00000000e+00 -7.20334141e+00 -1.00473506e+01 -1.35479812e+01 0.00000000e+00 -7.48363896e+00 -1.19886794e+01 -1.80170299e+01 0.00000000e+00 -6.75897798e+00 -1.15301136e+01 -1.84362448e+01 
        </DataArray>
        <DataArray type="Float64" Name="v">
          0.00000000e+00 -1.53872897e+01 -1.11182945e+01 -4.35106511e+00 0.00000000e+00 -1.23955467e+01 -1.00829949e+01 -5.24985688e+00 0.00000000e+00 -9.50590595e+00 -8.17435742e+00 -4.84298443e+00 0.00000000e+00 -5.74779520e+00 -5.37778598e+00 -3.51199124e+00 
        </DataArray>
        <DataArray type="Float64" Name="p">
          -6.04055722e+03 -5.95296575e+03 -5.86537428e+03 -5.77778281e+03 -5.94688534e+03 -5.87472271e+03 -5.80256008e+03 -5.73039744e+03 -5.85321346e+03 -5.79647966e+03 -5.73974587e+03 -5.68301208e+03 -5.75954157e+03 -5.71823662e+03 -5.67693167e+03 -5.63562671e+03 
        </DataArray>
      </PointData>
    </Piece>
    <Piece NumberOfPoints="16" NumberOfCells="9">
      <Points>
        <DataArray type="Float64" NumberOfComponents="3" format="ascii">
          2.50000000e+00 8.00000000e+00 0.00000000e+00 
3.33333325e+00 8.00000000e+00 0.00000000e+00 
4.16666651e+00 8.00000000e+00 0.00000000e+00 
5.00000000e+00 8.00000000e+00 0.00000000e+00 
2.50000000e+00 8.33333302e+00 0.00000000e+00 
3.33333325e+00 8.33333302e+00 0.00000000e+00 
4.16666651e+00 8.33333302e+00 0.00000000e+00 
5.00000000e+00 8.33333302e+00 0.00000000e+00 
2.50000000e+00 8.66666698e+00 0.00000000e+00 
3.33333325e+00 8.66666698e+00 0.00000000e+00 
4.16666651e+00 8.66666698e+00 0.00000000e+00 
5.00000000e+00 8.66666698e+00 0.00000000e+00 
2.50000000e+00 9.00000000e+00 0.00000000e+00 
3.33333325e+00 9.00000000e+00 0.00000000e+00 
4.16666651e+00 9.00000000e+00 0.00000000e+00 
5.00000000e+00 9.00000000e+00 0.00000000e+00 

        </DataArray>
      </Points>
      <Cells>
        <DataArray type="Int32" Name="connectivity" format="ascii">
0 1 5 4
4 5 9 8
8 9 13 12
1 2 6 5
5 6 10 9
9 10 14 13
2 3 7 6
6 7 11 10
10 11 15 14

        </DataArray>
        <DataArray type="Int32" Name="offsets" format="ascii">
4 8 12 16 20 24 28 32 36 
        </DataArray>
        <DataArray type="UInt8" Name="types" format="ascii">
9 9 9 9 9 9 9 9 9 
        </DataArray>
      </Cells>
      <PointData>
        <DataArray type="Float64" Name="u">
          0.00000000e+00 -6.75897798e+00 -1.15301136e+01 -1.84362448e+01 0.00000000e+00 -5.27326367e+00 -9.11528180e+00 -1.54223676e+01 0.00000000e+00 -3.03083537e+00 -5.10326354e+00 -9.17282976e+00 0.00000000e+00 0.00000000e+00 0.00000000e+00 0.00000000e+00 
        </DataArray>
        <DataArray type="Float64" Name="v">
          0.00000000e+00 -5.74779520e+00 -5.37778598e+00 -3.51199124e+00 0.00000000e+00 -2.62698458e+00 -2.62409490e+00 -1.74356700e+00 0.00000000e+00 -8.88884464e-01 -9.53372306e-01 -6.54982470e-01 0.00000000e+00 0.00000000e+00 0.00000000e+00 0.00000000e+00 
        </DataArray>
        <DataArray type="Float64" Name="p">
          -5.77524781e+03 -5.72452148e+03 -5.67379514e+03 -5.62306881e+03 -5.78874811e+03 -5.73810862e+03 -5.68746914e+03 -5.63682965e+03 -5.80224841e+03 -5.75169577e+03 -5.70114313e+03 -5.65059049e+03 -5.81574870e+03 -5.76528292e+03 -5.71481713e+03 -5.66435134e+03 
        </DataArray>
      </PointData>
    </Piece>
    <Piece NumberOfPoints="16" NumberOfCells="9">
      <Points>
        <DataArray type="Float64" NumberOfComponents="3" format="ascii">
          5.00000000e+00 0.00000000e+00 0.00000000e+00 
5.83333349e+00 0.00000000e+00 0.00000000e+00 
6.66666651e+00 0.00000000e+00 0.00000000e+00 
7.50000000e+00 0.00000000e+00 0.00000000e+00 
5.00000000e+00 3.33333343e-01 0.00000000e+00 
5.83333349e+00 3.33333343e-01 0.00000000e+00 
6.66666651e+00 3.33333343e-01 0.00000000e+00 
7.50000000e+00 3.33333343e-01 0.00000000e+00 
5.00000000e+00 6.66666687e-01 0.00000000e+00 
5.83333349e+00 6.66666687e-01 0.00000000e+00 
6.66666651e+00 6.66666687e-01 0.00000000e+00 
7.50000000e+00 6.66666687e-01 0.00000000e+00 
5.00000000e+00 1.00000000e+00 0.00000000e+00 
5.83333349e+00 1.00000000e+00 0.00000000e+00 
6.66666651e+00 1.00000000e+00 0.00000000e+00 
7.50000000e+00 1.00000000e+00 0.00000000e+00 

        </DataArray>
      </Points>
      <Cells>
        <DataArray type="Int32" Name="connectivity" format="ascii">
0 1 5 4
4 5 9 8
8 9 13 12
1 2 6 5
5 6 10 9
9 10 14 13
2 3 7 6
6 7 11 10
10 11 15 14

        </DataArray>
        <DataArray type="Int32" Name="offsets" format="ascii">
4 8 12 16 20 24 28 32 36 
        </DataArray>
        <DataArray type="UInt8" Name="types" format="ascii">
9 9 9 9 9 9 9 9 9 
        </DataArray>
      </Cells>
      <PointData>
        <DataArray type="Float64" Name="u">