<?xml version="1.0"?>
<VTKFile type="UnstructuredGrid" version="0.1" byte_order="LittleEndian">
  <UnstructuredGrid>
    <Piece NumberOfPoints="16" NumberOfCells="9">
      <Points>
        <DataArray type="Float64" NumberOfComponents="3" format="ascii">
          0.00000000e+00 3.00000000e+00 0.00000000e+00 
8.33333313e-01 3.00000000e+00 0.00000000e+00 
1.66666663e+00 3.00000000e+00 0.00000000e+00 
2.50000000e+00 3.00000000e+00 0.00000000e+00 
0.00000000e+00 3.33333325e+00 0.00000000e+00 
8.33333313e-01 3.33333325e+00 0.00000000e+00 
1.66666663e+00 3.33333325e+00 0.00000000e+00 
2.50000000e+00 3.33333325e+00 0.00000000e+00 
0.00000000e+00 3.66666675e+00 0.00000000e+00 
8.33333313e-01 3.66666675e+00 0.00000000e+00 
1.66666663e+00 3.66666675e+00 0.00000000e+00 
2.50000000e+00 3.66666675e+00 0.00000000e+00 
0.00000000e+00 4.00000000e+00 0.00000000e+00 
8.33333313e-01 4.00000000e+00 0.00000000e+00 
1.66666663e+00 4.00000000e+00 0.00000000e+00 
2.50000000e+00 4.00000000e+00 0.00000000e+00 

        </DataArray>
      </Points>
      <Cells>
        <DataArray type="Int32" Name="connectivity" format="ascii">
0 1 5 4
4 5 9 8
8 9 13 12
1 2 6 5
5 6 10 9
9 10 14 13
2 3 7 6
6 7 11 10
10 11 15 14

        </DataArray>
        <DataArray type="Int32" Name="offsets" format="ascii">
4 8 12 16 20 24 28 32 36 
        </DataArray>
        <DataArray type="UInt8" Name="types" format="ascii">
9 9 9 9 9 9 9 9 9 
        </DataArray>
      </Cells>
      <PointData>
        <DataArray type="Float64" Name="u">
          0.00000000e+00 0.00000000e+00 0.00000000e+00 0.00000000e+00 8.88888889e+01 8.94690762e+01 8.94987188e+01 9.10715682e+01 1.55555556e+02 1.55371443e+02 1.56261167e+02 1.55823192e+02 2.00000000e+02 1.98987057e+02 2.00362949e+02 1.98761348e+02 
        </DataArray>
        <DataArray type="Float64" Name="v">
          0.00000000e+00 0.00000000e+00 0.00000000e+00 0.00000000e+00 0.00000000e+00 -2.43192116e-01 -4.04051083e-02 -1.69291060e+00 0.00000000e+00 -2.13292271e-01 -2.39503098e-01 -8.65721425e-01 0.00000000e+00 -3.02428691e-01 -2.37257198e-01 -8.25860102e-01 
        </DataArray>
        <DataArray type="Float64" Name="p">
          -2.03469588e+03 -3.43615104e+03 -4.83760620e+03 -6.23906136e+03 -2.04483859e+03 -3.43344353e+03 -4.82204848e+03 -6.21065342e+03 -2.05498130e+03 -3.43073603e+03 -4.80649075e+03 -6.18224548e+03 -2.06512402e+03 -3.42802852e+03 -4.79093303e+03 -6.15383754e+03 
        </DataArray>
      </PointData>
    </Piece>
    <Piece NumberOfPoints="16" NumberOfCells="9">
      <Points>
        <DataArray type="Float64" NumberOfComponents="3" format="ascii">
          0.00000000e+00 4.00000000e+00 0.00000000e+00 
8.33333313e-01 4.00000000e+00 0.00000000e+00 
1.66666663e+00 4.00000000e+00 0.00000000e+00 
2.50000000e+00 4.00000000e+00 0.00000000e+00 
0.00000000e+00 4.33333349e+00 0.00000000e+00 
8.33333313e-01 4.33333349e+00 0.00000000e+00 
1.66666663e+00 4.33333349e+00 0.00000000e+00 
2.50000000e+00 4.33333349e+00 0.00000000e+00 
0.00000000e+00 4.66666651e+00 0.00000000e+00 
8.33333313e-01 4.66666651e+00 0.00000000e+00 
1.66666663e+00 4.66666651e+00 0.00000000e+00 
2.50000000e+00 4.66666651e+00 0.00000000e+00 
0.00000000e+00 5.00000000e+00 0.00000000e+00 
8.33333313e-01 5.00000000e+00 0.00000000e+00 
1.66666663e+00 5.00000000e+00 0.00000000e+00 
2.50000000e+00 5.00000000e+00 0.00000000e+00 

        </DataArray>
      </Points>
      <Cells>
        <DataArray type="Int32" Name="connectivity" format="ascii">
0 1 5 4
4 5 9 8
8 9 13 12
1 2 6 5
5 6 10 9
9 10 14 13
2 3 7 6
6 7 11 10
10 11 15 14

        </DataArray>
        <DataArray type="Int32" Name="offsets" format="ascii">
4 8 12 16 20 24 28 32 36 
        </DataArray>
        <DataArray type="UInt8" Name="types" format="ascii">
9 9 9 9 9 9 9 9 9 
        </DataArray>
      </Cells>
      <PointData>
        <DataArray type="Float64" Name="u">
          2.00000000e+02 1.98987057e+02 2.00362949e+02 1.98761348e+02 2.22222222e+02 2.20963651e+02 2.22202607e+02 2.20597675e+02 2.22222222e+02 2.20963651e+02 2.22202607e+02 2.20597675e+02 2.00000000e+02 1.98987057e+02 2.00362949e+02 1.98761348e+02 
        </DataArray>
        <DataArray type="Float64" Name="v">
          0.00000000e+00 -3.02428691e-01 -2.37257198e-01 -8.25860102e-01 0.00000000e+00 -1.32321916e-02 -1.02282240e-01 3.72813840e-02 0.00000000e+00 1.32321915e-02 1.02282240e-01 -3.72813841e-02 0.00000000e+00 3.02428691e-01 2.37257198e-01 8.25860102e-01 
        </DataArray>
        <DataArray type="Float64" Name="p">
          -2.04392196e+03 -3.41408338e+03 -4.78424481e+03 -6.15440623e+03 -2.04392196e+03 -3.41408338e+03 -4.78424481e+03 -6.15440623e+03 -2.04392196e+03 -3.41408338e+03 -4.78424481e+03 -6.15440623e+03 -2.04392196e+03 -3.41408338e+03 -4.78424481e+03 -6.15440623e+03 
        </DataArray>
      </PointData>
    </Piece>
    <Piece NumberOfPoints="16" NumberOfCells="9">
      <Points>
        <DataArray type="Float64" NumberOfComponents="3" format="ascii">
          0.00000000e+00 5.00000000e+00 0.00000000e+00 
8.33333313e-01 5.00000000e+00 0.00000000e+00 
1.66666663e+00 5.00000000e+00 0.00000000e+00 
2.50000000e+00 5.00000000e+00 0.00000000e+00 
0.00000000e+00 5.33333349e+00 0.00000000e+00 
8.33333313e-01 5.33333349e+00 0.00000000e+00 
1.66666663e+00 5.33333349e+00 0.00000000e+00 
2.50000000e+00 5.33333349e+00 0.00000000e+00 
0.00000000e+00 5.66666651e+00 0.00000000e+00 
8.33333313e-01 5.66666651e+00 0.00000000e+00 
1.66666663e+00 5.66666651e+00 0.00000000e+00 
2.50000000e+00 5.66666651e+00 0.00000000e+00 
0.00000000e+00 6.00000000e+00 0.00000000e+00 
8.33333313e-01 6.00000000e+00 0.00000000e+00 
1.66666663e+00 6.00000000e+00 0.00000000e+00 
2.50000000e+00 6.00000000e+00 0.00000000e+00 

        </DataArray>
      </Points>
      <Cells>
        <DataArray type="Int32" Name="connectivity" format="ascii">
0 1 5 4
4 5 9 8
8 9 13 12
1 2 6 5
5 6 10 9
9 10 14 13
2 3 7 6
6 7 11 10
10 11 15 14

        </DataArray>
        <DataArray type="Int32" Name="offsets" format="ascii">
4 8 12 16 20 24 28 32 36 
        </DataArray>
        <DataArray type="UInt8" Name="types" format="ascii">
9 9 9 9 9 9 9 9 9 
        </DataArray>
      </Cells>
      <PointData>
        <DataArray type="Float64" Name="u">
          2.00000000e+02 1.98987057e+02 2.00362949e+02 1.98761348e+02 1.55555556e+02 1.55371443e+02 1.56261167e+02 1.55823192e+02 8.88888889e+01 8.94690762e+01 8.94987188e+01 9.10715682e+01 0.00000000e+00 0.00000000e+00 0.00000000e+00 0.00000000e+00 
        </DataArray>
        <DataArray type="Float64" Name="v">
          0.00000000e+00 3.02428691e-01 2.37257198e-01 8.25860102e-01 0.00000000e+00 2.13292271e-01 2.39503098e-01 8.65721425e-01 0.00000000e+00 2.43192116e-01 4.04051083e-02 1.69291060e+00 0.00000000e+00 0.00000000e+00 0.00000000e+00 0.00000000e+00 
        </DataArray>
        <DataArray type="Float64" Name="p">
          -2.06512402e+03 -3.42802852e+03 -4.79093303e+03 -6.15383754e+03 -2.05498130e+03 -3.43073603e+03 -4.80649075e+03 -6.18224548e+03 -2.04483859e+03 -3.43344353e+03 -4.82204848e+03 -6.21065342e+03 -2.03469588e+03 -3.43615104e+03 -4.83760620e+03 -6.23906136e+03 
        </DataArray>
      </PointData>
    </Piece>
    <Piece NumberOfPoints="16" NumberOfCells="9">
      <Points>
        <DataArray type="Float64" NumberOfComponents="3" format="ascii">
          2.50000000e+00 0.00000000e+00 0.00000000e+00 
3.33333325e+00 0.00000000e+00 0.00000000e+00 
4.16666651e+00 0.00000000e+00 0.00000000e+00 
5.00000000e+00 0.00000000e+00 0.00000000e+00 
2.50000000e+00 3.33333343e-01 0.00000000e+00 
3.33333325e+00 3.33333343e-01 0.00000000e+00 
4.16666651e+00 3.33333343e-01 0.00000000e+00 
5.00000000e+00 3.33333343e-01 0.00000000e+00 
2.50000000e+00 6.66666687e-01 0.00000000e+00 
3.33333325e+00 6.66666687e-01 0.00000000e+00 
4.16666651e+00 6.66666687e-01 0.00000000e+00 
5.00000000e+00 6.66666687e-01 0.00000000e+00 
2.50000000e+00 1.00000000e+00 0.00000000e+00 
3.33333325e+00 1.00000000e+00 0.00000000e+00 
4.16666651e+00 1.00000000e+00 0.00000000e+00 
5.00000000e+00 1.00000000e+00 0.00000000e+00 

        </DataArray>
      </Points>
      <Cells>
        <DataArray type="Int32" Name="connectivity" format="ascii">
0 1 5 4
4 5 9 8
8 9 13 12
1 2 6 5
5 6 10 9
9 10 14 13
2 3 7 6
6 7 11 10
10 11 15 14

        </DataArray>
        <DataArray type="Int32" Name="offsets" format="ascii">
4 8 12 16 20 24 28 32 36 
        </DataArray>
        <DataArray type="UInt8" Name="types" format="ascii">
9 9 9 9 9 9 9 9 9 
        </DataArray>
      </Cells>
      <PointData>
        <DataArray type="Float64" Name="u">
          0.00000000e+00 0.00000000e+00 0.00000000e+00 0.00000000e+00 0.00000000e+00 -3.02549137e+00 -5.09737440e+00 -9.16219561e+00 0.00000000e+00 -5.26539483e+00 -9.10686390e+00 -1.54087678e+01 0.00000000e+00 -6.75055798e+00 -1.15225322e+01 -1.84251508e+01 
        </DataArray>
        <DataArray type="Float64" Name="v">
          0.00000000e+00 0.00000000e+00 0.00000000e+00 0.00000000e+00 0.00000000e+00 8.87541521e-01 9.52071380e-01 6.55044276e-01 0.00000000e+00 2.62354142e+00 2.62126411e+00 1.74392636e+00 0.00000000e+00 5.74101415e+00 5.37307219e+00 3.51295740e+00 
        </DataArray>
        <DataArray type="Float64" Name="p">
          -5.82147274e+03 -5.77133993e+03 -5.72120712e+03 -5.67107431e+03 -5.80802452e+03 -5.75779581e+03 -5.70756711e+03 -5.65733840e+03 -5.79457630e+03 -5.74425170e+03 -5.69392710e+03 -5.64360250e+03 -5.78112809e+03 -5.73070759e+03 -5.68028709e+03 -5.62986659e+03 
        </DataArray>
      </PointData>
    </Piece>
    <Piece NumberOfPoints="16" NumberOfCells="9">
      <Points>
        <DataArray type="Float64" NumberOfComponents="3" format="ascii">
          2.50000000e+00 1.00000000e+00 0.00000000e+00 
3.33333325e+00 1.00000000e+00 0.00000000e+00 
4.16666651e+00 1.00000000e+00 0.00000000e+00 
5.00000000e+00 1.00000000e+00 0.00000000e+00 
2.50000000e+00 1.33333337e+00 0.00000000e+00 
3.33333325e+00 1.33333337e+00 0.00000000e+00 
4.16666651e+00 1.33333337e+00 0.00000000e+00 
5.00000000e+00 1.33333337e+00 0.00000000e+00 
2.50000000e+00 1.66666663e+00 0.00000000e+00 
3.33333325e+00 1.66666663e+00 0.00000000e+00 
4.16666651e+00 1.66666663e+00 0.00000000e+00 
5.00000000e+00 1.66666663e+00 0.00000000e+00 
2.50000000e+00 2.00000000e+00 0.00000000e+00 
3.33333325e+00 2.00000000e+00 0.00000000e+00 
4.16666651e+00 2.00000000e+00 0.00000000e+00 
5.00000000e+00 2.00000000e+00 0.00000000e+00 

        </DataArray>
      </Points>
      <Cells>
        <DataArray type="Int32" Name="connectivity" format="ascii">
0 1 5 4
4 5 9 8
8 9 13 12
1 2 6 5
5 6 10 9
9 10 14 13
2 3 7 6
6 7 11 10
10 11 15 14

        </DataArray>
        <DataArray type="Int32" Name="offsets" format="ascii">
4 8 12 16 20 24 28 32 36 
        </DataArray>
        <DataArray type="UInt8" Name="types" format="ascii">
9 9 9 9 9 9 9 9 9 
        </DataArray>
      </Cells>
      <PointData>
        <DataArray type="Float64" Name="u">
          0.00000000e+00 -6.75055798e+00 -1.15225322e+01 -1.84251508e+01 0.00000000e+00 -7.47607218e+00 -1.19846691e+01 -1.80129540e+01 0.00000000e+00 -7.19829170e+00 -1.00494435e+01 -1.35546116e+01 0.00000000e+00 -5.34130010e+00 -5.00169185e+00 -4.33652035e+00 
        </DataArray>
        <DataArray type="Float64" Name="v">
          0.00000000e+00 5.74101415e+00 5.37307219e+00 3.51295740e+00 0.00000000e+00 9.49626177e+00 8.16915344e+00 4.84581780e+00 0.00000000e+00 1.23845530e+01 1.00784108e+01 5.25545387e+00 0.00000000e+00 1.53764753e+01 1.11168549e+01 4.36097294e+00 
        </DataArray>
        <DataArray type="Float64" Name="p">
          -5.76546709e+03 -5.72442840e+03 -5.68338971e+03 -5.64235102e+03 -5.85878456e+03 -5.80241011e+03 -5.74603565e+03 -5.68966120e+03 -5.95210202e+03 -5.88039181e+03 -5.80868160e+03 -5.73697139e+03 -6.04541949e+03 -5.95837352e+03 -5.87132755e+03 -5.78428158e+03 
        </DataArray>
      </PointData>
    </Piece>
    <Piece NumberOfPoints="16" NumberOfCells="9">
      <Points>
        <DataArray type="Float64" NumberOfComponents="3" format="ascii">
          2.50000000e+00 2.00000000e+00 0.00000000e+00 
3.33333325e+00 2.00000000e+00 0.00000000e+00 
4.16666651e+00 2.00000000e+00 0.00000000e+00 
5.00000000e+00 2.00000000e+00 0.00000000e+00 
2.50000000e+00 2.33333325e+00 0.00000000e+00 
3.33333325e+00 2.33333325e+00 0.00000000e+00 
4.16666651e+00 2.33333325e+00 0.00000000e+00 
5.00000000e+00 2.33333325e+00 0.00000000e+00 
2.50000000e+00 2.66666675e+00 0.00000000e+00 
3.33333325e+00 2.66666675e+00 0.00000000e+00 
4.16666651e+00 2.66666675e+00 0.00000000e+00 
5.00000000e+00 2.66666675e+00 0.00000000e+00 
2.50000000e+00 3.00000000e+00 0.00000000e+00 
3.33333325e+00 3.00000000e+00 0.00000000e+00 
4.16666651e+00 3.00000000e+00 0.00000000e+00 
5.00000000e+00 3.00000000e+00 0.00000000e+00 

        </DataArray>
      </Points>
      <Cells>
        <DataArray type="Int32" Name="connectivity" format="ascii">
0 1 5 4
4 5 9 8
8 9 13 12
1 2 6 5
5 6 10 9
9 10 14 13
2 3 7 6
6 7 11 10
10 11 15 14

        </DataArray>
        <DataArray type="Int32" Name="offsets" format="ascii">
4 8 12 16 20 24 28 32 36 
        </DataArray>
        <DataArray type="UInt8" Name="types" format="ascii">
9 9 9 9 9 9 9 9 9 
        </DataArray>
      </Cells>
      <PointData>
        <DataArray type="Float64" Name="u">
          0.00000000e+00 -5.34130010e+00 -5.00169185e+00 -4.33652035e+00 0.00000000e+00 -6.60624940e-01 3.84350300e+00 1.19886520e+01 0.00000000e+00 1.24292845e+01 2.08112820e+01 3.56193713e+01 0.00000000e+00 4.65613273e+01 5.21032911e+01 6.92151237e+01 
        </DataArray>
        <DataArray type="Float64" Name="v">
          0.00000000e+00 1.53764753e+01 1.11168549e+01 4.36097294e+00 0.00000000e+00 1.68276959e+01 9.12157799e+00 1.16341714e+00 0.00000000e+00 1.33366939e+01 6.16438670e+00 -1.46126682e+00 0.00000000e+00 2.08607288e+00 -7.11379875e-01 -3.36418474e+00 
        </DataArray>
        <DataArray type="Float64" Name="p">
          -6.00783610e+03 -5.96909556e+03 -5.93035501e+03 -5.89161447e+03 -6.34384930e+03 -6.13547707e+03 -5.92710484e+03 -5.71873261e+03 -6.67986250e+03 -6.30185859e+03 -5.92385467e+03 -5.54585075e+03 -7.01587571e+03 -6.46824010e+03 -5.92060450e+03 -5.37296889e+03 
        </DataArray>
      </PointData>
    </Piece>
    <Piece NumberOfPoints="16" NumberOfCells="9">
      <Points>
        <DataArray type="Float64" NumberOfComponents="3" format="ascii">
          2.50000000e+00 3.00000000e+00 0.00000000e+00 
3.33333325e+00 3.00000000e+00 0.00000000e+00 
4.16666651e+00 3.00000000e+00 0.00000000e+00 
5.00000000e+00 3.00000000e+00 0.00000000e+00 
2.50000000e+00 3.33333325e+00 0.00000000e+00 
3.33333325e+00 3.33333325e+00 0.00000000e+00 
4.16666651e+00 3.33333325e+00 0.00000000e+00 
5.00000000e+00 3.33333325e+00 0.00000000e+00 
2.50000000e+00 3.66666675e+00 0.00000000e+00 
3.33333325e+00 3.66666675e+00 0.00000000e+00 
4.16666651e+00 3.66666675e+00 0.00000000e+00 
5.00000000e+00 3.66666675e+00 0.00000000e+00 
2.50000000e+00 4.00000000e+00 0.00000000e+00 
3.33333325e+00 4.00000000e+00 0.00000000e+00 
4.16666651e+00 4.00000000e+00 0.00000000e+00 
5.00000000e+00 4.00000000e+00 0.00000000e+00 

        </DataArray>
      </Points>
      <Cells>
        <DataArray type="Int32" Name="connectivity" format="ascii">
0 1 5 4
4 5 9 8
8 9 13 12
1 2 6 5
5 6 10 9
9 10 14 13
2 3 7 6
6 7 11 10
10 11 15 14

        </DataArray>
        <DataArray type="Int32" Name="offsets" format="ascii">
4 8 12 16 20 24 28 32 36 
        </DataArray>
        <DataArray type="UInt8" Name="types" format="ascii">
9 9 9 9 9 9 9 9 9 
        </DataArray>
      </Cells>
      <PointData>
        <DataArray type="Float64" Name="u">
          0.00000000e+00 4.65613273e+01 5.21032911e+01 6.92151237e+01 9.10715682e+01 9.60248412e+01 1.00579478e+02 1.06187411e+02 1.55823192e+02 1.51250522e+02 1.51096182e+02 1.48353183e+02 1.98761348e+02 1.91625361e+02 1.90251745e+02 1.82498028e+02 
        </DataArray>
        <DataArray type="Float64" Name="v">
          0.00000000e+00 2.08607288e+00 -7.11379875e-01 -3.36418474e+00 -1.69291060e+00 -6.62293123e+00 -5.07348673e+00 -2.39890160e+00 -8.65721425e-01 -6.92135203e+00 -6.71678675e+00 -2.98871540e+00 -8.25860102e-01 -4.51854050e+00 -4.24992633e+00 -2.46456695e+00 
        </DataArray>
        <DataArray type="Float64" Name="p">
          -7.08089684e+03 -6.43979686e+03 -5.79869688e+03 -5.15759690e+03 -6.58409769e+03 -6.20118383e+03 -5.81826997e+03 -5.43535610e+03 -6.08729855e+03 -5.96257080e+03 -5.83784305e+03 -5.71311530e+03 -5.59049940e+03 -5.72395777e+03 -5.85741613e+03 -5.99087450e+03 
        </DataArray>
      </PointData>
    </Piece>
    <Piece NumberOfPoints="16" NumberOfCells="9">
      <Points>
        <DataArray type="Float64" NumberOfComponents="3" format="ascii">
          2.50000000e+00 4.00000000e+00 0.00000000e+00 
3.33333325e+00 4.00000000e+00 0.00000000e+00 
4.16666651e+00 4.00000000e+00 0.00000000e+00 
5.00000000e+00 4.00000000e+00 0.00000000e+00 
2.50000000e+00 4.33333349e+00 0.00000000e+00 
3.33333325e+00 4.33333349e+00 0.00000000e+00 
4.16666651e+00 4.33333349e+00 0.00000000e+00 
5.00000000e+00 4.33333349e+00 0.00000000e+00 
2.50000000e+00 4.66666651e+00 0.00000000e+00 
3.33333325e+00 4.66666651e+00 0.00000000e+00 
4.16666651e+00 4.66666651e+00 0.00000000e+00 
5.00000000e+00 4.66666651e+00 0.00000000e+00 
2.50000000e+00 5.00000000e+00 0.00000000e+00 
3.33333325e+00 5.00000000e+00 0.00000000e+00 
4.16666651e+00 5.00000000e+00 0.00000000e+00 
5.00000000e+00 5.00000000e+00 0.00000000e+00 

        </DataArray>
      </Points>
      <Cells>
        <DataArray type="Int32" Name="connectivity" format="ascii">
0 1 5 4
4 5 9 8
8 9 13 12
1 2 6 5
5 6 10 9
9 10 14 13
2 3 7 6
6 7 11 10
10 11 15 14

        </DataArray>
        <DataArray type="Int32" Name="offsets" format="ascii">
4 8 12 16 20 24 28 32 36 
        </DataArray>
        <DataArray type="UInt8" Name="types" format="ascii">
9 9 9 9 9 9 9 9 9 
        </DataArray>
      </Cells>
      <PointData>
        <DataArray type="Float64" Name="u">
          1.98761348e+02 1.91625361e+02 1.90251745e+02 1.82498028e+02 2.20597675e+02 2.12515951e+02 2.10029420e+02 2.01355592e+02 2.20597675e+02 2.12515951e+02 2.10029420e+02 2.01355592e+02 1.98761348e+02 1.91625361e+02 1.90251745e+02 1.82498028e+02 
        </DataArray>
        <DataArray type="Float64" Name="v">
          -8.25860102e-01 -4.51854050e+00 -4.24992633e+00 -2.46456695e+00 3.72813840e-02 -5.46351415e-01 -1.26169858e+00 -1.17174209e+00 -3.72813841e-02 5.46351415e-01 1.26169858e+00 1.17174209e+00 8.25860102e-01 4.51854050e+00 4.24992633e+00 2.46456695e+00 
        </DataArray>
        <DataArray type="Float64" Name="p">
          -5.42338317e+03 -5.64499568e+03 -5.86660819e+03 -6.08822071e+03 -5.42338317e+03 -5.64499568e+03 -5.86660819e+03 -6.08822071e+03 -5.42338317e+03 -5.64499568e+03 -5.86660819e+03 -6.08822071e+03 -5.42338317e+03 -5.64499568e+03 -5.86660819e+03 -6.08822071e+03 
        </DataArray>
      </PointData>
    </Piece>
    <Piece NumberOfPoints="16" NumberOfCells="9">
      <Points>
        <DataArray type="Float64" NumberOfComponents="3" format="ascii">
          2.50000000e+00 5.00000000e+00 0.00000000e+00 
3.33333325e+00 5.00000000e+00 0.00000000e+00 
4.16666651e+00 5.00000000e+00 0.00000000e+00 
5.00000000e+00 5.00000000e+00 0.00000000e+00 
2.50000000e+00 5.33333349e+00 0.00000000e+00 
3.33333325e+00 5.33333349e+00 0.00000000e+00 
4.16666651e+00 5.33333349e+00 0.00000000e+00 
5.00000000e+00 5.33333349e+00 0.00000000e+00 
2.50000000e+00 5.66666651e+00 0.00000000e+00 
3.33333325e+00 5.66666651e+00 0.00000000e+00 
4.16666651e+00 5.66666651e+00 0.00000000e+00 
5.00000000e+00 5.66666651e+00 0.00000000e+00 
2.50000000e+00 6.00000000e+00 0.00000000e+00 
3.33333325e+00 6.00000000e+00 0.00000000e+00 
4.16666651e+00 6.00000000e+00 0.00000000e+00 
5.00000000e+00 6.00000000e+00 0.00000000e+00 

        </DataArray>
      </Points>
      <Cells>
        <DataArray type="Int32" Name="connectivity" format="ascii">
0 1 5 4
4 5 9 8
8 9 13 12
1 2 6 5
5 6 10 9
9 10 14 13
2 3 7 6
6 7 11 10
10 11 15 14

        </DataArray>
        <DataArray type="Int32" Name="offsets" format="ascii">
4 8 12 16 20 24 28 32 36 
        </DataArray>
        <DataArray type="UInt8" Name="types" format="ascii">
9 9 9 9 9 9 9 9 9 
        </DataArray>
      </Cells>
      <PointData>
        <DataArray type="Float64" Name="u">
          1.98761348e+02 1.91625361e+02 1.90251745e+02 1.82498028e+02 1.55823192e+02 1.51250522e+02 1.51096182e+02 1.48353183e+02 9.10715682e+01 9.60248412e+01 1.00579478e+02 1.06187411e+02 0.00000000e+00 4.65613273e+01 5.21032911e+01 6.92151237e+01 
        </DataArray>
        <DataArray type="Float64" Name="v">
          8.25860102e-01 4.51854050e+00 4.24992633e+00 2.46456695e+00 8.65721425e-01 6.92135203e+00 6.71678675e+00 2.98871540e+00 1.69291060e+00 6.62293122e+00 5.07348673e+00 2.39890160e+00 0.00000000e+00 -2.08607288e+00 7.11379875e-01 3.36418474e+00 
        </DataArray>
        <DataArray type="Float64" Name="p">
          -5.59049940e+03 -5.72395777e+03 -5.85741613e+03 -5.99087450e+03 -6.08729855e+03 -5.96257080e+03 -5.83784305e+03 -5.71311530e+03 -6.58409769e+03 -6.20118383e+03 -5.81826997e+03 -5.43535610e+03 -7.08089684e+03 -6.43979686e+03 -5.79869688e+03 -5.15759690e+03 
        </DataArray>
      </PointData>
    </Piece>
    <Piece NumberOfPoints="16" NumberOfCells="9">
      <Points>
        <DataArray type="Float64" NumberOfComponents="3" format="ascii">
          2.50000000e+00 6.00000000e+00 0.00000000e+00 
3.33333325e+00 6.00000000e+00 0.00000000e+00 
4.16666651e+00 6.00000000e+00 0.00000000e+00 
5.00000000e+00 6.00000000e+00 0.00000000e+00 
2.50000000e+00 6.33333349e+00 0.00000000e+00 
3.33333325e+00 6.33333349e+00 0.00000000e+00 
4.16666651e+00 6.33333349e+00 0.00000000e+00 
5.00000000e+00 6.33333349e+00 0.00000000e+00 
2.50000000e+00 6.66666651e+00 0.00000000e+00 
3.33333325e+00 6.66666651e+00 0.00000000e+00 
4.16666651e+00 6.66666651e+00 0.00000000e+00 
5.00000000e+00 6.66666651e+00 0.00000000e+00 
2.50000000e+00 7.00000000e+00 0.00000000e+00 
3.33333325e+00 7.00000000e+00 0.00000000e+00 
4.16666651e+00 7.00000000e+00 0.00000000e+00 
5.00000000e+00 7.00000000e+00 0.00000000e+00 

        </DataArray>
      </Points>
      <Cells>
        <DataArray type="Int32" Name="connectivity" format="ascii">
0 1 5 4
4 5 9 8
8 9 13 12
1 2 6 5
5 6 10 9
9 10 14 13
2 3 7 6
6 7 11 10
10 11 15 14

        </DataArray>
        <DataArray type="Int32" Name="offsets" format="ascii">
4 8 12 16 20 24 28 32 36 
        </DataArray>
        <DataArray type="UInt8" Name="types" format="ascii">
9 9 9 9 9 9 9 9 9 
        </DataArray>
      </Cells>
      <PointData>
        <DataArray type="Float64" Name="u">
          0.00000000e+00 4.65613273e+01 5.21032911e+01 6.92151237e+01 0.00000000e+00 1.24292845e+01 2.08112820e+01 3.56193713e+01 0.00000000e+00 -6.60624940e-01 3.84350300e+00 1.19886520e+01 0.00000000e+00 -5.34130010e+00 -5.00169185e+00 -4.33652035e+00 
        </DataArray>
        <DataArray type="Float64" Name="v">
          0.00000000e+00 -2.08607288e+00 7.11379875e-01 3.36418474e+00 0.00000000e+00 -1.33366939e+01 -6.16438670e+00 1.46126682e+00 0.00000000e+00 -1.68276959e+01 -9.12157799e+00 -1.16341714e+00 0.00000000e+00 -1.53764753e+01 -1.11168549e+01 -4.36097294e+00 
        </DataArray>
        <DataArray type="Float64" Name="p">
          -7.01587571e+03 -6.46824010e+03 -5.92060450e+03 -5.37296889e+03 -6.67986250e+03 -6.30185859e+03 -5.92385467e+03 -5.54585075e+03 -6.34384930e+03 -6.13547707e+03 -5.92710484e+03 -5.71873261e+03 -6.00783610e+03 -5.96909556e+03 -5.93035501e+03 -5.89161447e+03 
        </DataArray>
      </PointData>
    </Piece>
    <Piece NumberOfPoints="16" NumberOfCells="9">
      <Points>
        <DataArray type="Float64" NumberOfComponents="3" format="ascii">
          2.50000000e+00 7.00000000e+00 0.00000000e+00 
3.33333325e+00 7.00000000e+00 0.00000000e+00 
4.16666651e+00 7.00000000e+00 0.00000000e+00 
5.00000000e+00 7.00000000e+00 0.00000000e+00 
2.50000000e+00 7.33333349e+00 0.00000000e+00 
3.33333325e+00 7.33333349e+00 0.00000000e+00 
4.16666651e+00 7.33333349e+00 0.00000000e+00 
5.00000000e+00 7.33333349e+00 0.00000000e+00 
2.50000000e+00 7.66666651e+00 0.00000000e+00 
3.33333325e+00 7.66666651e+00 0.00000000e+00 
4.16666651e+00 7.66666651e+00 0.00000000e+00 
5.00000000e+00 7.66666651e+00 0.00000000e+00 
2.50000000e+00 8.00000000e+00 0.00000000e+00 
3.33333325e+00 8.00000000e+00 0.00000000e+00 
4.16666651e+00 8.00000000e+00 0.00000000e+00 
5.00000000e+00 8.00000000e+00 0.00000000e+00 

        </DataArray>
      </Points>
      <Cells>
        <DataArray type="Int32" Name="connectivity" format="ascii">
0 1 5 4
4 5 9 8
8 9 13 12
1 2 6 5
5 6 10 9
9 10 14 13
2 3 7 6
6 7 11 10
10 11 15 14

        </DataArray>
        <DataArray type="Int32" Name="offsets" format="ascii">
4 8 12 16 20 24 28 32 36 
        </DataArray>
        <DataArray type="UInt8" Name="types" format="ascii">
9 9 9 9 9 9 9 9 9 
        </DataArray>
      </Cells>
      <PointData>
        <DataArray type="Float64" Name="u">
          0.00000000e+00 -5.34130010e+00 -5.00169185e+00 -4.33652035e+00 0.00000000e+00 -7.19829170e+00 -1.00494435e+01 -1.35546116e+01 0.00000000e+00 -7.47607218e+00 -1.19846691e+01 -1.80129540e+01 0.00000000e+00 -6.75055798e+00 -1.15225322e+01 -1.84251508e+01 
        </DataArray>
        <DataArray type="Float64" Name="v">
          0.00000000e+00 -1.53764753e+01 -1.11168549e+01 -4.36097294e+00 0.00000000e+00 -1.23845530e+01 -1.00784108e+01 -5.25545387e+00 0.00000000e+00 -9.49626177e+00 -8.16915344e+00 -4.84581780e+00 0.00000000e+00 -5.74101415e+00 -5.37307219e+00 -3.51295740e+00 
        </DataArray>
        <DataArray type="Float64" Name="p">
          -6.04541949e+03 -5.95837352e+03 -5.87132755e+03 -5.78428158e+03 -5.95210202e+03 -5.88039181e+03 -5.80868160e+03 -5.73697139e+03 -5.85878456e+03 -5.80241011e+03 -5.74603565e+03 -5.68966120e+03 -5.76546709e+03 -5.72442840e+03 -5.68338971e+03 -5.64235102e+03 
        </DataArray>
      </PointData>
    </Piece>
    <Piece NumberOfPoints="16" NumberOfCells="9">
      <Points>
        <DataArray type="Float64" NumberOfComponents="3" format="ascii">
          2.50000000e+00 8.00000000e+00 0.00000000e+00 
3.33333325e+00 8.00000000e+00 0.00000000e+00 
4.16666651e+00 8.00000000e+00 0.00000000e+00 
5.00000000e+00 8.00000000e+00 0.00000000e+00 
2.50000000e+00 8.33333302e+00 0.00000000e+00 
3.33333325e+00 8.33333302e+00 0.00000000e+00 
4.16666651e+00 8.33333302e+00 0.00000000e+00 
5.00000000e+00 8.33333302e+00 0.00000000e+00 
2.50000000e+00 8.66666698e+00 0.00000000e+00 
3.33333325e+00 8.66666698e+00 0.00000000e+00 
4.16666651e+00 8.66666698e+00 0.00000000e+00 
5.00000000e+00 8.66666698e+00 0.00000000e+00 
2.50000000e+00 9.00000000e+00 0.00000000e+00 
3.33333325e+00 9.00000000e+00 0.00000000e+00 
4.16666651e+00 9.00000000e+00 0.00000000e+00 
5.00000000e+00 9.00000000e+00 0.00000000e+00 

        </DataArray>
      </Points>
      <Cells>
        <DataArray type="Int32" Name="connectivity" format="ascii">
0 1 5 4
4 5 9 8
8 9 13 12
1 2 6 5
5 6 10 9
9 10 14 13
2 3 7 6
6 7 11 10
10 11 15 14

        </DataArray>
        <DataArray type="Int32" Name="offsets" format="ascii">
4 8 12 16 20 24 28 32 36 
        </DataArray>
        <DataArray type="UInt8" Name="types" format="ascii">
9 9 9 9 9 9 9 9 9 
        </DataArray>
      </Cells>
      <PointData>
        <DataArray type="Float64" Name="u">
          0.00000000e+00 -6.75055798e+00 -1.15225322e+01 -1.84251508e+01 0.00000000e+00 -5.26539483e+00 -9.10686390e+00 -1.54087678e+01 0.00000000e+00 -3.02549137e+00 -5.09737440e+00 -9.16219561e+00 0.00000000e+00 0.00000000e+00 0.00000000e+00 0.00000000e+00 
        </DataArray>
        <DataArray type="Float64" Name="v">
          0.00000000e+00 -5.74101415e+00 -5.37307219e+00 -3.51295740e+00 0.00000000e+00 -2.62354142e+00 -2.62126411e+00 -1.74392636e+00 0.00000000e+00 -8.87541521e-01 -9.52071380e-01 -6.55044276e-01 0.00000000e+00 0.00000000e+00 0.00000000e+00 0.00000000e+00 
        </DataArray>
        <DataArray type="Float64" Name="p">
          -5.78112809e+03 -5.73070759e+03 -5.68028709e+03 -5.62986659e+03 -5.79457630e+03 -5.74425170e+03 -5.69392710e+03 -5.64360250e+03 -5.80802452e+03 -5.75779581e+03 -5.70756711e+03 -5.65733840e+03 -5.82147274e+03 -5.77133993e+03 -5.72120712e+03 -5.67107431e+03 
        </DataArray>
      </PointData>
    </Piece>
    <Piece NumberOfPoints="16" NumberOfCells="9">
      <Points>
        <DataArray type="Float64" NumberOfComponents="3" format="ascii">
          5.00000000e+00 0.00000000e+00 0.00000000e+00 
5.83333349e+00 0.00000000e+00 0.00000000e+00 
6.66666651e+00 0.00000000e+00 0.00000000e+00 
7.50000000e+00 0.00000000e+00 0.00000000e+00 
5.00000000e+00 3.33333343e-01 0.00000000e+00 
5.83333349e+00 3.33333343e-01 0.00000000e+00 
6.66666651e+00 3.33333343e-01 0.00000000e+00 
7.50000000e+00 3.33333343e-01 0.00000000e+00 
5.00000000e+00 6.66666687e-01 0.00000000e+00 
5.83333349e+00 6.66666687e-01 0.00000000e+00 
6.66666651e+00 6.66666687e-01 0.00000000e+00 
7.50000000e+00 6.66666687e-01 0.00000000e+00 
5.00000000e+00 1.00000000e+00 0.00000000e+00 
5.83333349e+00 1.00000000e+00 0.00000000e+00 
6.66666651e+00 1.00000000e+00 0.00000000e+00 
7.50000000e+00 1.00000000e+00 0.00000000e+00 

        </DataArray>
      </Points>
      <Cells>
        <DataArray type="Int32" Name="connectivity" format="ascii">
0 1 5 4
4 5 9 8
8 9 13 12
1 2 6 5
5 6 10 9
9 10 14 13
2 3 7 6
6 7 11 10
10 11 15 14

        </DataArray>
        <DataArray type="Int32" Name="offsets" format="ascii">
4 8 12 16 20 24 28 32 36 
        </DataArray>
        <DataArray type="UInt8" Name="types" format="ascii">
9 9 9 9 9 9 9 9 9 
        </DataArray>
      </Cells>
      <PointData>
        <DataArray type="Float64" Name="u">