<?xml version="1.0"?>
<VTKFile type="UnstructuredGrid" version="0.1" byte_order="LittleEndian">
  <UnstructuredGrid>
    <Piece NumberOfPoints="16" NumberOfCells="9">
      <Points>
        <DataArray type="Float64" NumberOfComponents="3" format="ascii">
          0.00000000e+00 3.00000000e+00 0.00000000e+00 
8.33333313e-01 3.00000000e+00 0.00000000e+00 
1.66666663e+00 3.00000000e+00 0.00000000e+00 
2.50000000e+00 3.00000000e+00 0.00000000e+00 
0.00000000e+00 3.33333325e+00 0.00000000e+00 
8.33333313e-01 3.33333325e+00 0.00000000e+00 
1.66666663e+00 3.33333325e+00 0.00000000e+00 
2.50000000e+00 3.33333325e+00 0.00000000e+00 
0.00000000e+00 3.66666675e+00 0.00000000e+00 
8.33333313e-01 3.66666675e+00 0.00000000e+00 
1.66666663e+00 3.66666675e+00 0.00000000e+00 
2.50000000e+00 3.66666675e+00 0.00000000e+00 
0.00000000e+00 4.00000000e+00 0.00000000e+00 
8.33333313e-01 4.00000000e+00 0.00000000e+00 
1.66666663e+00 4.00000000e+00 0.00000000e+00 
2.50000000e+00 4.00000000e+00 0.00000000e+00 

        </DataArray>
      </Points>
      <Cells>
        <DataArray type="Int32" Name="connectivity" format="ascii">
0 1 5 4
4 5 9 8
8 9 13 12
1 2 6 5
5 6 10 9
9 10 14 13
2 3 7 6
6 7 11 10
10 11 15 14

        </DataArray>
        <DataArray type="Int32" Name="offsets" format="ascii">
4 8 12 16 20 24 28 32 36 
        </DataArray>
        <DataArray type="UInt8" Name="types" format="ascii">
9 9 9 9 9 9 9 9 9 
        </DataArray>
      </Cells>
      <PointData>
        <DataArray type="Float64" Name="u">
          0.00000000e+00 0.00000000e+00 0.00000000e+00 0.00000000e+00 8.88888889e+01 8.94687965e+01 8.94980445e+01 9.10680056e+01 1.55555556e+02 1.55371709e+02 1.56260112e+02 1.55822799e+02 2.00000000e+02 1.98988277e+02 2.00362095e+02 1.98763353e+02 
        </DataArray>
        <DataArray type="Float64" Name="v">
          0.00000000e+00 0.00000000e+00 0.00000000e+00 0.00000000e+00 0.00000000e+00 -2.43129652e-01 -4.01708130e-02 -1.69008528e+00 0.00000000e+00 -2.13012996e-01 -2.39266233e-01 -8.63213825e-01 0.00000000e+00 -3.02133487e-01 -2.36725678e-01 -8.24396076e-01 
        </DataArray>
        <DataArray type="Float64" Name="p">
          -2.04224657e+03 -3.44186058e+03 -4.84147459e+03 -6.24108859e+03 -2.05235085e+03 -3.43915489e+03 -4.82595894e+03 -6.21276298e+03 -2.06245513e+03 -3.43644921e+03 -4.81044329e+03 -6.18443737e+03 -2.07255940e+03 -3.43374352e+03 -4.79492764e+03 -6.15611177e+03 
        </DataArray>
      </PointData>
    </Piece>
    <Piece NumberOfPoints="16" NumberOfCells="9">
      <Points>
        <DataArray type="Float64" NumberOfComponents="3" format="ascii">
          0.00000000e+00 4.00000000e+00 0.00000000e+00 
8.33333313e-01 4.00000000e+00 0.00000000e+00 
1.66666663e+00 4.00000000e+00 0.00000000e+00 
2.50000000e+00 4.00000000e+00 0.00000000e+00 
0.00000000e+00 4.33333349e+00 0.00000000e+00 
8.33333313e-01 4.33333349e+00 0.00000000e+00 
1.66666663e+00 4.33333349e+00 0.00000000e+00 
2.50000000e+00 4.33333349e+00 0.00000000e+00 
0.00000000e+00 4.66666651e+00 0.00000000e+00 
8.33333313e-01 4.66666651e+00 0.00000000e+00 
1.66666663e+00 4.66666651e+00 0.00000000e+00 
2.50000000e+00 4.66666651e+00 0.00000000e+00 
0.00000000e+00 5.00000000e+00 0.00000000e+00 
8.33333313e-01 5.00000000e+00 0.00000000e+00 
1.66666663e+00 5.00000000e+00 0.00000000e+00 
2.50000000e+00 5.00000000e+00 0.00000000e+00 

        </DataArray>
      </Points>
      <Cells>
        <DataArray type="Int32" Name="connectivity" format="ascii">
0 1 5 4
4 5 9 8
8 9 13 12
1 2 6 5
5 6 10 9
9 10 14 13
2 3 7 6
6 7 11 10
10 11 15 14

        </DataArray>
        <DataArray type="Int32" Name="offsets" format="ascii">
4 8 12 16 20 24 28 32 36 
        </DataArray>
        <DataArray type="UInt8" Name="types" format="ascii">
9 9 9 9 9 9 9 9 9 
        </DataArray>
      </Cells>
      <PointData>
        <DataArray type="Float64" Name="u">
          2.00000000e+02 1.98988277e+02 2.00362095e+02 1.98763353e+02 2.22222222e+02 2.20965439e+02 2.22202318e+02 2.20600293e+02 2.22222222e+02 2.20965439e+02 2.22202318e+02 2.20600293e+02 2.00000000e+02 1.98988277e+02 2.00362095e+02 1.98763353e+02 
        </DataArray>
        <DataArray type="Float64" Name="v">
          0.00000000e+00 -3.02133487e-01 -2.36725678e-01 -8.24396076e-01 0.00000000e+00 -1.31547615e-02 -1.02132468e-01 3.73936102e-02 0.00000000e+00 1.31547615e-02 1.02132468e-01 -3.73936104e-02 0.00000000e+00 3.02133487e-01 2.36725678e-01 8.24396076e-01 
        </DataArray>
        <DataArray type="Float64" Name="p">
          -2.05137858e+03 -3.41982460e+03 -4.78827061e+03 -6.15671662e+03 -2.05137858e+03 -3.41982460e+03 -4.78827061e+03 -6.15671662e+03 -2.05137858e+03 -3.41982460e+03 -4.78827061e+03 -6.15671662e+03 -2.05137858e+03 -3.41982460e+03 -4.78827061e+03 -6.15671662e+03 
        </DataArray>
      </PointData>
    </Piece>
    <Piece NumberOfPoints="16" NumberOfCells="9">
      <Points>
        <DataArray type="Float64" NumberOfComponents="3" format="ascii">
          0.00000000e+00 5.00000000e+00 0.00000000e+00 
8.33333313e-01 5.00000000e+00 0.00000000e+00 
1.66666663e+00 5.00000000e+00 0.00000000e+00 
2.50000000e+00 5.00000000e+00 0.00000000e+00 
0.00000000e+00 5.33333349e+00 0.00000000e+00 
8.33333313e-01 5.33333349e+00 0.00000000e+00 
1.66666663e+00 5.33333349e+00 0.00000000e+00 
2.50000000e+00 5.33333349e+00 0.00000000e+00 
0.00000000e+00 5.66666651e+00 0.00000000e+00 
8.33333313e-01 5.66666651e+00 0.00000000e+00 
1.66666663e+00 5.66666651e+00 0.00000000e+00 
2.50000000e+00 5.66666651e+00 0.00000000e+00 
0.00000000e+00 6.00000000e+00 0.00000000e+00 
8.33333313e-01 6.00000000e+00 0.00000000e+00 
1.66666663e+00 6.00000000e+00 0.00000000e+00 
2.50000000e+00 6.00000000e+00 0.00000000e+00 

        </DataArray>
      </Points>
      <Cells>
        <DataArray type="Int32" Name="connectivity" format="ascii">
0 1 5 4
4 5 9 8
8 9 13 12
1 2 6 5
5 6 10 9
9 10 14 13
2 3 7 6
6 7 11 10
10 11 15 14

        </DataArray>
        <DataArray type="Int32" Name="offsets" format="ascii">
4 8 12 16 20 24 28 32 36 
        </DataArray>
        <DataArray type="UInt8" Name="types" format="ascii">
9 9 9 9 9 9 9 9 9 
        </DataArray>
      </Cells>
      <PointData>
        <DataArray type="Float64" Name="u">
          2.00000000e+02 1.98988277e+02 2.00362095e+02 1.98763353e+02 1.55555556e+02 1.55371709e+02 1.56260112e+02 1.55822799e+02 8.88888889e+01 8.94687965e+01 8.94980445e+01 9.10680056e+01 0.00000000e+00 0.00000000e+00 0.00000000e+00 0.00000000e+00 
        </DataArray>
        <DataArray type="Float64" Name="v">
          0.00000000e+00 3.02133487e-01 2.36725678e-01 8.24396076e-01 0.00000000e+00 2.13012996e-01 2.39266233e-01 8.63213824e-01 0.00000000e+00 2.43129652e-01 4.01708130e-02 1.69008527e+00 0.00000000e+00 0.00000000e+00 0.00000000e+00 0.00000000e+00 
        </DataArray>
        <DataArray type="Float64" Name="p">
          -2.07255940e+03 -3.43374352e+03 -4.79492764e+03 -6.15611177e+03 -2.06245513e+03 -3.43644921e+03 -4.81044329e+03 -6.18443737e+03 -2.05235085e+03 -3.43915489e+03 -4.82595894e+03 -6.21276298e+03 -2.04224657e+03 -3.44186058e+03 -4.84147459e+03 -6.24108859e+03 
        </DataArray>
      </PointData>
    </Piece>
    <Piece NumberOfPoints="16" NumberOfCells="9">
      <Points>
        <DataArray type="Float64" NumberOfComponents="3" format="ascii">
          2.50000000e+00 0.00000000e+00 0.00000000e+00 
3.33333325e+00 0.00000000e+00 0.00000000e+00 
4.16666651e+00 0.00000000e+00 0.00000000e+00 
5.00000000e+00 0.00000000e+00 0.00000000e+00 
2.50000000e+00 3.33333343e-01 0.00000000e+00 
3.33333325e+00 3.33333343e-01 0.00000000e+00 
4.16666651e+00 3.33333343e-01 0.00000000e+00 
5.00000000e+00 3.33333343e-01 0.00000000e+00 
2.50000000e+00 6.66666687e-01 0.00000000e+00 
3.33333325e+00 6.66666687e-01 0.00000000e+00 
4.16666651e+00 6.66666687e-01 0.00000000e+00 
5.00000000e+00 6.66666687e-01 0.00000000e+00 
2.50000000e+00 1.00000000e+00 0.00000000e+00 
3.33333325e+00 1.00000000e+00 0.00000000e+00 
4.16666651e+00 1.00000000e+00 0.00000000e+00 
5.00000000e+00 1.00000000e+00 0.00000000e+00 

        </DataArray>
      </Points>
      <Cells>
        <DataArray type="Int32" Name="connectivity" format="ascii">
0 1 5 4
4 5 9 8
8 9 13 12
1 2 6 5
5 6 10 9
9 10 14 13
2 3 7 6
6 7 11 10
10 11 15 14

        </DataArray>
        <DataArray type="Int32" Name="offsets" format="ascii">
4 8 12 16 20 24 28 32 36 
        </DataArray>
        <DataArray type="UInt8" Name="types" format="ascii">
9 9 9 9 9 9 9 9 9 
        </DataArray>
      </Cells>
      <PointData>
        <DataArray type="Float64" Name="u">
          0.00000000e+00 0.00000000e+00 0.00000000e+00 0.00000000e+00 0.00000000e+00 -3.02281440e+00 -5.09442093e+00 -9.15686173e+00 0.00000000e+00 -5.26145179e+00 -9.10263924e+00 -1.54019386e+01 0.00000000e+00 -6.74633717e+00 -1.15187220e+01 -1.84195688e+01 
        </DataArray>
        <DataArray type="Float64" Name="v">
          0.00000000e+00 0.00000000e+00 0.00000000e+00 0.00000000e+00 0.00000000e+00 8.86868553e-01 9.51419198e-01 6.55073691e-01 0.00000000e+00 2.62181542e+00 2.61984373e+00 1.74410170e+00 0.00000000e+00 5.73761412e+00 5.37070470e+00 3.51343150e+00 
        </DataArray>
        <DataArray type="Float64" Name="p">
          -5.82432921e+03 -5.77436258e+03 -5.72439595e+03 -5.67442932e+03 -5.81090702e+03 -5.76083999e+03 -5.71077296e+03 -5.66070593e+03 -5.79748483e+03 -5.74731740e+03 -5.69714997e+03 -5.64698254e+03 -5.78406264e+03 -5.73379481e+03 -5.68352698e+03 -5.63325916e+03 
        </DataArray>
      </PointData>
    </Piece>
    <Piece NumberOfPoints="16" NumberOfCells="9">
      <Points>
        <DataArray type="Float64" NumberOfComponents="3" format="ascii">
          2.50000000e+00 1.00000000e+00 0.00000000e+00 
3.33333325e+00 1.00000000e+00 0.00000000e+00 
4.16666651e+00 1.00000000e+00 0.00000000e+00 
5.00000000e+00 1.00000000e+00 0.00000000e+00 
2.50000000e+00 1.33333337e+00 0.00000000e+00 
3.33333325e+00 1.33333337e+00 0.00000000e+00 
4.16666651e+00 1.33333337e+00 0.00000000e+00 
5.00000000e+00 1.33333337e+00 0.00000000e+00 
2.50000000e+00 1.66666663e+00 0.00000000e+00 
3.33333325e+00 1.66666663e+00 0.00000000e+00 
4.16666651e+00 1.66666663e+00 0.00000000e+00 
5.00000000e+00 1.66666663e+00 0.00000000e+00 
2.50000000e+00 2.00000000e+00 0.00000000e+00 
3.33333325e+00 2.00000000e+00 0.00000000e+00 
4.16666651e+00 2.00000000e+00 0.00000000e+00 
5.00000000e+00 2.00000000e+00 0.00000000e+00 

        </DataArray>
      </Points>
      <Cells>
        <DataArray type="Int32" Name="connectivity" format="ascii">
0 1 5 4
4 5 9 8
8 9 13 12
1 2 6 5
5 6 10 9
9 10 14 13
2 3 7 6
6 7 11 10
10 11 15 14

        </DataArray>
        <DataArray type="Int32" Name="offsets" format="ascii">
4 8 12 16 20 24 28 32 36 
        </DataArray>
        <DataArray type="UInt8" Name="types" format="ascii">
9 9 9 9 9 9 9 9 9 
        </DataArray>
      </Cells>
      <PointData>
        <DataArray type="Float64" Name="u">
          0.00000000e+00 -6.74633717e+00 -1.15187220e+01 -1.84195688e+01 0.00000000e+00 -7.47227731e+00 -1.19826446e+01 -1.80108822e+01 0.00000000e+00 -7.19575632e+00 -1.00504747e+01 -1.35579017e+01 0.00000000e+00 -5.34127145e+00 -5.00698618e+00 -4.34655671e+00 
        </DataArray>
        <DataArray type="Float64" Name="v">
          0.00000000e+00 5.73761412e+00 5.37070470e+00 3.51343150e+00 0.00000000e+00 9.49142451e+00 8.16653524e+00 4.84722152e+00 0.00000000e+00 1.23790362e+01 1.00760978e+01 5.25823686e+00 0.00000000e+00 1.53710441e+01 1.11161116e+01 4.36591156e+00 
        </DataArray>
        <DataArray type="Float64" Name="p">
          -5.76842425e+03 -5.72751846e+03 -5.68661268e+03 -5.64570689e+03 -5.86156464e+03 -5.80536954e+03 -5.74917443e+03 -5.69297933e+03 -5.95470503e+03 -5.88322061e+03 -5.81173619e+03 -5.74025177e+03 -6.04784542e+03 -5.96107168e+03 -5.87429795e+03 -5.78752421e+03 
        </DataArray>
      </PointData>
    </Piece>
    <Piece NumberOfPoints="16" NumberOfCells="9">
      <Points>
        <DataArray type="Float64" NumberOfComponents="3" format="ascii">
          2.50000000e+00 2.00000000e+00 0.00000000e+00 
3.33333325e+00 2.00000000e+00 0.00000000e+00 
4.16666651e+00 2.00000000e+00 0.00000000e+00 
5.00000000e+00 2.00000000e+00 0.00000000e+00 
2.50000000e+00 2.33333325e+00 0.00000000e+00 
3.33333325e+00 2.33333325e+00 0.00000000e+00 
4.16666651e+00 2.33333325e+00 0.00000000e+00 
5.00000000e+00 2.33333325e+00 0.00000000e+00 
2.50000000e+00 2.66666675e+00 0.00000000e+00 
3.33333325e+00 2.66666675e+00 0.00000000e+00 
4.16666651e+00 2.66666675e+00 0.00000000e+00 
5.00000000e+00 2.66666675e+00 0.00000000e+00 
2.50000000e+00 3.00000000e+00 0.00000000e+00 
3.33333325e+00 3.00000000e+00 0.00000000e+00 
4.16666651e+00 3.00000000e+00 0.00000000e+00 
5.00000000e+00 3.00000000e+00 0.00000000e+00 

        </DataArray>
      </Points>
      <Cells>
        <DataArray type="Int32" Name="connectivity" format="ascii">
0 1 5 4
4 5 9 8
8 9 13 12
1 2 6 5
5 6 10 9
9 10 14 13
2 3 7 6
6 7 11 10
10 11 15 14

        </DataArray>
        <DataArray type="Int32" Name="offsets" format="ascii">
4 8 12 16 20 24 28 32 36 
        </DataArray>
        <DataArray type="UInt8" Name="types" format="ascii">
9 9 9 9 9 9 9 9 9 
        </DataArray>
      </Cells>
      <PointData>
        <DataArray type="Float64" Name="u">
          0.00000000e+00 -5.34127145e+00 -5.00698618e+00 -4.34655671e+00 0.00000000e+00 -6.65073225e-01 3.83252743e+00 1.19718519e+01 0.00000000e+00 1.24177928e+01 2.07940129e+01 3.55976830e+01 0.00000000e+00 4.65464106e+01 5.20861621e+01 6.91941002e+01 
        </DataArray>
        <DataArray type="Float64" Name="v">
          0.00000000e+00 1.53710441e+01 1.11161116e+01 4.36591156e+00 0.00000000e+00 1.68238459e+01 9.12293547e+00 1.17025654e+00 0.00000000e+00 1.33370764e+01 6.16928035e+00 -1.45400638e+00 0.00000000e+00 2.09240676e+00 -7.04816547e-01 -3.35785094e+00 
        </DataArray>
        <DataArray type="Float64" Name="p">
          -6.01031080e+03 -5.97179129e+03 -5.93327178e+03 -5.89475227e+03 -6.34578121e+03 -6.13790148e+03 -5.93002175e+03 -5.72214202e+03 -6.68125162e+03 -6.30401167e+03 -5.92677172e+03 -5.54953177e+03 -7.01672203e+03 -6.47012186e+03 -5.92352169e+03 -5.37692152e+03 
        </DataArray>
      </PointData>
    </Piece>
    <Piece NumberOfPoints="16" NumberOfCells="9">
      <Points>
        <DataArray type="Float64" NumberOfComponents="3" format="ascii">
          2.50000000e+00 3.00000000e+00 0.00000000e+00 
3.33333325e+00 3.00000000e+00 0.00000000e+00 
4.16666651e+00 3.00000000e+00 0.00000000e+00 
5.00000000e+00 3.00000000e+00 0.00000000e+00 
2.50000000e+00 3.33333325e+00 0.00000000e+00 
3.33333325e+00 3.33333325e+00 0.00000000e+00 
4.16666651e+00 3.33333325e+00 0.00000000e+00 
5.00000000e+00 3.33333325e+00 0.00000000e+00 
2.50000000e+00 3.66666675e+00 0.00000000e+00 
3.33333325e+00 3.66666675e+00 0.00000000e+00 
4.16666651e+00 3.66666675e+00 0.00000000e+00 
5.00000000e+00 3.66666675e+00 0.00000000e+00 
2.50000000e+00 4.00000000e+00 0.00000000e+00 
3.33333325e+00 4.00000000e+00 0.00000000e+00 
4.16666651e+00 4.00000000e+00 0.00000000e+00 
5.00000000e+00 4.00000000e+00 0.00000000e+00 

        </DataArray>
      </Points>
      <Cells>
        <DataArray type="Int32" Name="connectivity" format="ascii">
0 1 5 4
4 5 9 8
8 9 13 12
1 2 6 5
5 6 10 9
9 10 14 13
2 3 7 6
6 7 11 10
10 11 15 14

        </DataArray>
        <DataArray type="Int32" Name="offsets" format="ascii">
4 8 12 16 20 24 28 32 36 
        </DataArray>
        <DataArray type="UInt8" Name="types" format="ascii">
9 9 9 9 9 9 9 9 9 
        </DataArray>
      </Cells>
      <PointData>
        <DataArray type="Float64" Name="u">
          0.00000000e+00 4.65464106e+01 5.20861621e+01 6.91941002e+01 9.10680056e+01 9.60194479e+01 1.00572135e+02 1.06178541e+02 1.55822799e+02 1.51255033e+02 1.51102078e+02 1.48362475e+02 1.98763353e+02 1.91635035e+02 1.90265459e+02 1.82521300e+02 
        </DataArray>
        <DataArray type="Float64" Name="v">
          0.00000000e+00 2.09240676e+00 -7.04816547e-01 -3.35785094e+00 -1.69008528e+00 -6.61486957e+00 -5.06542373e+00 -2.39186233e+00 -8.63213825e-01 -6.91258392e+00 -6.70906167e+00 -2.98330980e+00 -8.24396076e-01 -4.51295162e+00 -4.24411158e+00 -2.46056745e+00 
        </DataArray>
        <DataArray type="Float64" Name="p">
          -7.08187696e+03 -6.44177007e+03 -5.80166318e+03 -5.16155629e+03 -6.58570919e+03 -6.20350889e+03 -5.82130860e+03 -5.43910830e+03 -6.08954143e+03 -5.96524772e+03 -5.84095402e+03 -5.71666031e+03 -5.59337366e+03 -5.72698655e+03 -5.86059944e+03 -5.99421232e+03 
        </DataArray>
      </PointData>
    </Piece>
    <Piece NumberOfPoints="16" NumberOfCells="9">
      <Points>
        <DataArray type="Float64" NumberOfComponents="3" format="ascii">
          2.50000000e+00 4.00000000e+00 0.00000000e+00 
3.33333325e+00 4.00000000e+00 0.00000000e+00 
4.16666651e+00 4.00000000e+00 0.00000000e+00 
5.00000000e+00 4.00000000e+00 0.00000000e+00 
2.50000000e+00 4.33333349e+00 0.00000000e+00 
3.33333325e+00 4.33333349e+00 0.00000000e+00 
4.16666651e+00 4.33333349e+00 0.00000000e+00 
5.00000000e+00 4.33333349e+00 0.00000000e+00 
2.50000000e+00 4.66666651e+00 0.00000000e+00 
3.33333325e+00 4.66666651e+00 0.00000000e+00 
4.16666651e+00 4.66666651e+00 0.00000000e+00 
5.00000000e+00 4.66666651e+00 0.00000000e+00 
2.50000000e+00 5.00000000e+00 0.00000000e+00 
3.33333325e+00 5.00000000e+00 0.00000000e+00 
4.16666651e+00 5.00000000e+00 0.00000000e+00 
5.00000000e+00 5.00000000e+00 0.00000000e+00 

        </DataArray>
      </Points>
      <Cells>
        <DataArray type="Int32" Name="connectivity" format="ascii">
0 1 5 4
4 5 9 8
8 9 13 12
1 2 6 5
5 6 10 9
9 10 14 13
2 3 7 6
6 7 11 10
10 11 15 14

        </DataArray>
        <DataArray type="Int32" Name="offsets" format="ascii">
4 8 12 16 20 24 28 32 36 
        </DataArray>
        <DataArray type="UInt8" Name="types" format="ascii">
9 9 9 9 9 9 9 9 9 
        </DataArray>
      </Cells>
      <PointData>
        <DataArray type="Float64" Name="u">
          1.98763353e+02 1.91635035e+02 1.90265459e+02 1.82521300e+02 2.20600293e+02 2.12528318e+02 2.10046375e+02 2.01384183e+02 2.20600293e+02 2.12528318e+02 2.10046375e+02 2.01384183e+02 1.98763353e+02 1.91635035e+02 1.90265459e+02 1.82521300e+02 
        </DataArray>
        <DataArray type="Float64" Name="v">
          -8.24396076e-01 -4.51295162e+00 -4.24411158e+00 -2.46056745e+00 3.73936102e-02 -5.44762457e-01 -1.25953030e+00 -1.17028853e+00 -3.73936104e-02 5.44762457e-01 1.25953030e+00 1.17028853e+00 8.24396076e-01 4.51295162e+00 4.24411158e+00 2.46056745e+00 
        </DataArray>
        <DataArray type="Float64" Name="p">
          -5.42645979e+03 -5.64812285e+03 -5.86978590e+03 -6.09144896e+03 -5.42645979e+03 -5.64812285e+03 -5.86978590e+03 -6.09144896e+03 -5.42645979e+03 -5.64812285e+03 -5.86978590e+03 -6.09144896e+03 -5.42645979e+03 -5.64812285e+03 -5.86978590e+03 -6.09144896e+03 
        </DataArray>
      </PointData>
    </Piece>
    <Piece NumberOfPoints="16" NumberOfCells="9">
      <Points>
        <DataArray type="Float64" NumberOfComponents="3" format="ascii">
          2.50000000e+00 5.00000000e+00 0.00000000e+00 
3.33333325e+00 5.00000000e+00 0.00000000e+00 
4.16666651e+00 5.00000000e+00 0.00000000e+00 
5.00000000e+00 5.00000000e+00 0.00000000e+00 
2.50000000e+00 5.33333349e+00 0.00000000e+00 
3.33333325e+00 5.33333349e+00 0.00000000e+00 
4.16666651e+00 5.33333349e+00 0.00000000e+00 
5.00000000e+00 5.33333349e+00 0.00000000e+00 
2.50000000e+00 5.66666651e+00 0.00000000e+00 
3.33333325e+00 5.66666651e+00 0.00000000e+00 
4.16666651e+00 5.66666651e+00 0.00000000e+00 
5.00000000e+00 5.66666651e+00 0.00000000e+00 
2.50000000e+00 6.00000000e+00 0.00000000e+00 
3.33333325e+00 6.00000000e+00 0.00000000e+00 
4.16666651e+00 6.00000000e+00 0.00000000e+00 
5.00000000e+00 6.00000000e+00 0.00000000e+00 

        </DataArray>
      </Points>
      <Cells>
        <DataArray type="Int32" Name="connectivity" format="ascii">
0 1 5 4
4 5 9 8
8 9 13 12
1 2 6 5
5 6 10 9
9 10 14 13
2 3 7 6
6 7 11 10
10 11 15 14

        </DataArray>
        <DataArray type="Int32" Name="offsets" format="ascii">
4 8 12 16 20 24 28 32 36 
        </DataArray>
        <DataArray type="UInt8" Name="types" format="ascii">
9 9 9 9 9 9 9 9 9 
        </DataArray>
      </Cells>
      <PointData>
        <DataArray type="Float64" Name="u">
          1.98763353e+02 1.91635035e+02 1.90265459e+02 1.82521300e+02 1.55822799e+02 1.51255033e+02 1.51102078e+02 1.48362475e+02 9.10680056e+01 9.60194479e+01 1.00572135e+02 1.06178541e+02 0.00000000e+00 4.65464106e+01 5.20861621e+01 6.91941002e+01 
        </DataArray>
        <DataArray type="Float64" Name="v">
          8.24396076e-01 4.51295162e+00 4.24411158e+00 2.46056745e+00 8.63213824e-01 6.91258392e+00 6.70906167e+00 2.98330980e+00 1.69008527e+00 6.61486957e+00 5.06542373e+00 2.39186233e+00 0.00000000e+00 -2.09240676e+00 7.04816547e-01 3.35785094e+00 
        </DataArray>
        <DataArray type="Float64" Name="p">
          -5.59337366e+03 -5.72698655e+03 -5.86059944e+03 -5.99421232e+03 -6.08954143e+03 -5.96524772e+03 -5.84095402e+03 -5.71666031e+03 -6.58570919e+03 -6.20350889e+03 -5.82130860e+03 -5.43910830e+03 -7.08187696e+03 -6.44177007e+03 -5.80166318e+03 -5.16155629e+03 
        </DataArray>
      </PointData>
    </Piece>
    <Piece NumberOfPoints="16" NumberOfCells="9">
      <Points>
        <DataArray type="Float64" NumberOfComponents="3" format="ascii">
          2.50000000e+00 6.00000000e+00 0.00000000e+00 
3.33333325e+00 6.00000000e+00 0.00000000e+00 
4.16666651e+00 6.00000000e+00 0.00000000e+00 
5.00000000e+00 6.00000000e+00 0.00000000e+00 
2.50000000e+00 6.33333349e+00 0.00000000e+00 
3.33333325e+00 6.33333349e+00 0.00000000e+00 
4.16666651e+00 6.33333349e+00 0.00000000e+00 
5.00000000e+00 6.33333349e+00 0.00000000e+00 
2.50000000e+00 6.66666651e+00 0.00000000e+00 
3.33333325e+00 6.66666651e+00 0.00000000e+00 
4.16666651e+00 6.66666651e+00 0.00000000e+00 
5.00000000e+00 6.66666651e+00 0.00000000e+00 
2.50000000e+00 7.00000000e+00 0.00000000e+00 
3.33333325e+00 7.00000000e+00 0.00000000e+00 
4.16666651e+00 7.00000000e+00 0.00000000e+00 
5.00000000e+00 7.00000000e+00 0.00000000e+00 

        </DataArray>
      </Points>
      <Cells>
        <DataArray type="Int32" Name="connectivity" format="ascii">
0 1 5 4
4 5 9 8
8 9 13 12
1 2 6 5
5 6 10 9
9 10 14 13
2 3 7 6
6 7 11 10
10 11 15 14

        </DataArray>
        <DataArray type="Int32" Name="offsets" format="ascii">
4 8 12 16 20 24 28 32 36 
        </DataArray>
        <DataArray type="UInt8" Name="types" format="ascii">
9 9 9 9 9 9 9 9 9 
        </DataArray>
      </Cells>
      <PointData>
        <DataArray type="Float64" Name="u">
          0.00000000e+00 4.65464106e+01 5.20861621e+01 6.91941002e+01 0.00000000e+00 1.24177928e+01 2.07940129e+01 3.55976830e+01 0.00000000e+00 -6.65073225e-01 3.83252743e+00 1.19718519e+01 0.00000000e+00 -5.34127145e+00 -5.00698618e+00 -4.34655671e+00 
        </DataArray>
        <DataArray type="Float64" Name="v">
          0.00000000e+00 -2.09240676e+00 7.04816547e-01 3.35785094e+00 0.00000000e+00 -1.33370764e+01 -6.16928035e+00 1.45400638e+00 0.00000000e+00 -1.68238459e+01 -9.12293547e+00 -1.17025654e+00 0.00000000e+00 -1.53710441e+01 -1.11161116e+01 -4.36591156e+00 
        </DataArray>
        <DataArray type="Float64" Name="p">
          -7.01672203e+03 -6.47012186e+03 -5.92352169e+03 -5.37692152e+03 -6.68125162e+03 -6.30401167e+03 -5.92677172e+03 -5.54953177e+03 -6.34578121e+03 -6.13790148e+03 -5.93002175e+03 -5.72214202e+03 -6.01031080e+03 -5.97179129e+03 -5.93327178e+03 -5.89475227e+03 
        </DataArray>
      </PointData>
    </Piece>
    <Piece NumberOfPoints="16" NumberOfCells="9">
      <Points>
        <DataArray type="Float64" NumberOfComponents="3" format="ascii">
          2.50000000e+00 7.00000000e+00 0.00000000e+00 
3.33333325e+00 7.00000000e+00 0.00000000e+00 
4.16666651e+00 7.00000000e+00 0.00000000e+00 
5.00000000e+00 7.00000000e+00 0.00000000e+00 
2.50000000e+00 7.33333349e+00 0.00000000e+00 
3.33333325e+00 7.33333349e+00 0.00000000e+00 
4.16666651e+00 7.33333349e+00 0.00000000e+00 
5.00000000e+00 7.33333349e+00 0.00000000e+00 
2.50000000e+00 7.66666651e+00 0.00000000e+00 
3.33333325e+00 7.66666651e+00 0.00000000e+00 
4.16666651e+00 7.66666651e+00 0.00000000e+00 
5.00000000e+00 7.66666651e+00 0.00000000e+00 
2.50000000e+00 8.00000000e+00 0.00000000e+00 
3.33333325e+00 8.00000000e+00 0.00000000e+00 
4.16666651e+00 8.00000000e+00 0.00000000e+00 
5.00000000e+00 8.00000000e+00 0.00000000e+00 

        </DataArray>
      </Points>
      <Cells>
        <DataArray type="Int32" Name="connectivity" format="ascii">
0 1 5 4
4 5 9 8
8 9 13 12
1 2 6 5
5 6 10 9
9 10 14 13
2 3 7 6
6 7 11 10
10 11 15 14

        </DataArray>
        <DataArray type="Int32" Name="offsets" format="ascii">
4 8 12 16 20 24 28 32 36 
        </DataArray>
        <DataArray type="UInt8" Name="types" format="ascii">
9 9 9 9 9 9 9 9 9 
        </DataArray>
      </Cells>
      <PointData>
        <DataArray type="Float64" Name="u">
          0.00000000e+00 -5.34127145e+00 -5.00698618e+00 -4.34655671e+00 0.00000000e+00 -7.19575632e+00 -1.00504747e+01 -1.35579017e+01 0.00000000e+00 -7.47227731e+00 -1.19826446e+01 -1.80108822e+01 0.00000000e+00 -6.74633717e+00 -1.15187220e+01 -1.84195688e+01 
        </DataArray>
        <DataArray type="Float64" Name="v">
          0.00000000e+00 -1.53710441e+01 -1.11161116e+01 -4.36591156e+00 0.00000000e+00 -1.23790362e+01 -1.00760978e+01 -5.25823686e+00 0.00000000e+00 -9.49142451e+00 -8.16653524e+00 -4.84722152e+00 0.00000000e+00 -5.73761412e+00 -5.37070470e+00 -3.51343150e+00 
        </DataArray>
        <DataArray type="Float64" Name="p">
          -6.04784542e+03 -5.96107168e+03 -5.87429795e+03 -5.78752421e+03 -5.95470503e+03 -5.88322061e+03 -5.81173619e+03 -5.74025177e+03 -5.86156464e+03 -5.80536954e+03 -5.74917443e+03 -5.69297933e+03 -5.76842425e+03 -5.72751846e+03 -5.68661268e+03 -5.64570689e+03 
        </DataArray>
      </PointData>
    </Piece>
    <Piece NumberOfPoints="16" NumberOfCells="9">
      <Points>
        <DataArray type="Float64" NumberOfComponents="3" format="ascii">
          2.50000000e+00 8.00000000e+00 0.00000000e+00 
3.33333325e+00 8.00000000e+00 0.00000000e+00 
4.16666651e+00 8.00000000e+00 0.00000000e+00 
5.00000000e+00 8.00000000e+00 0.00000000e+00 
2.50000000e+00 8.33333302e+00 0.00000000e+00 
3.33333325e+00 8.33333302e+00 0.00000000e+00 
4.16666651e+00 8.33333302e+00 0.00000000e+00 
5.00000000e+00 8.33333302e+00 0.00000000e+00 
2.50000000e+00 8.66666698e+00 0.00000000e+00 
3.33333325e+00 8.66666698e+00 0.00000000e+00 
4.16666651e+00 8.66666698e+00 0.00000000e+00 
5.00000000e+00 8.66666698e+00 0.00000000e+00 
2.50000000e+00 9.00000000e+00 0.00000000e+00 
3.33333325e+00 9.00000000e+00 0.00000000e+00 
4.16666651e+00 9.00000000e+00 0.00000000e+00 
5.00000000e+00 9.00000000e+00 0.00000000e+00 

        </DataArray>
      </Points>
      <Cells>
        <DataArray type="Int32" Name="connectivity" format="ascii">
0 1 5 4
4 5 9 8
8 9 13 12
1 2 6 5
5 6 10 9
9 10 14 13
2 3 7 6
6 7 11 10
10 11 15 14

        </DataArray>
        <DataArray type="Int32" Name="offsets" format="ascii">
4 8 12 16 20 24 28 32 36 
        </DataArray>
        <DataArray type="UInt8" Name="types" format="ascii">
9 9 9 9 9 9 9 9 9 
        </DataArray>
      </Cells>
      <PointData>
        <DataArray type="Float64" Name="u">
          0.00000000e+00 -6.74633717e+00 -1.15187220e+01 -1.84195688e+01 0.00000000e+00 -5.26145179e+00 -9.10263924e+00 -1.54019386e+01 0.00000000e+00 -3.02281440e+00 -5.09442093e+00 -9.15686173e+00 0.00000000e+00 0.00000000e+00 0.00000000e+00 0.00000000e+00 
        </DataArray>
        <DataArray type="Float64" Name="v">
          0.00000000e+00 -5.73761412e+00 -5.37070470e+00 -3.51343150e+00 0.00000000e+00 -2.62181542e+00 -2.61984373e+00 -1.74410170e+00 0.00000000e+00 -8.86868553e-01 -9.51419198e-01 -6.55073691e-01 0.00000000e+00 0.00000000e+00 0.00000000e+00 0.00000000e+00 
        </DataArray>
        <DataArray type="Float64" Name="p">
          -5.78406264e+03 -5.73379481e+03 -5.68352698e+03 -5.63325916e+03 -5.79748483e+03 -5.74731740e+03 -5.69714997e+03 -5.64698254e+03 -5.81090702e+03 -5.76083999e+03 -5.71077296e+03 -5.66070593e+03 -5.82432921e+03 -5.77436258e+03 -5.72439595e+03 -5.67442932e+03 
        </DataArray>
      </PointData>
    </Piece>
    <Piece NumberOfPoints="16" NumberOfCells="9">
      <Points>
        <DataArray type="Float64" NumberOfComponents="3" format="ascii">
          5.00000000e+00 0.00000000e+00 0.00000000e+00 
5.83333349e+00 0.00000000e+00 0.00000000e+00 
6.66666651e+00 0.00000000e+00 0.00000000e+00 
7.50000000e+00 0.00000000e+00 0.00000000e+00 
5.00000000e+00 3.33333343e-01 0.00000000e+00 
5.83333349e+00 3.33333343e-01 0.00000000e+00 
6.66666651e+00 3.33333343e-01 0.00000000e+00 
7.50000000e+00 3.33333343e-01 0.00000000e+00 
5.00000000e+00 6.66666687e-01 0.00000000e+00 
5.83333349e+00 6.66666687e-01 0.00000000e+00 
6.66666651e+00 6.66666687e-01 0.00000000e+00 
7.50000000e+00 6.66666687e-01 0.00000000e+00 
5.00000000e+00 1.00000000e+00 0.00000000e+00 
5.83333349e+00 1.00000000e+00 0.00000000e+00 
6.66666651e+00 1.00000000e+00 0.00000000e+00 
7.50000000e+00 1.00000000e+00 0.00000000e+00 

        </DataArray>
      </Points>
      <Cells>
        <DataArray type="Int32" Name="connectivity" format="ascii">
0 1 5 4
4 5 9 8
8 9 13 12
1 2 6 5
5 6 10 9
9 10 14 13
2 3 7 6
6 7 11 10
10 11 15 14

        </DataArray>
        <DataArray type="Int32" Name="offsets" format="ascii">
4 8 12 16 20 24 28 32 36 
        </DataArray>
        <DataArray type="UInt8" Name="types" format="ascii">
9 9 9 9 9 9 9 9 9 
        </DataArray>
      </Cells>
      <PointData>
        <DataArray type="Float64" Name="u">