<?xml version="1.0"?>
<VTKFile type="UnstructuredGrid" version="0.1" byte_order="LittleEndian">
  <UnstructuredGrid>
    <Piece NumberOfPoints="16" NumberOfCells="9">
      <Points>
        <DataArray type="Float64" NumberOfComponents="3" format="ascii">
          0.00000000e+00 3.00000000e+00 0.00000000e+00 
8.33333313e-01 3.00000000e+00 0.00000000e+00 
1.66666663e+00 3.00000000e+00 0.00000000e+00 
2.50000000e+00 3.00000000e+00 0.00000000e+00 
0.00000000e+00 3.33333325e+00 0.00000000e+00 
8.33333313e-01 3.33333325e+00 0.00000000e+00 
1.66666663e+00 3.33333325e+00 0.00000000e+00 
2.50000000e+00 3.33333325e+00 0.00000000e+00 
0.00000000e+00 3.66666675e+00 0.00000000e+00 
8.33333313e-01 3.66666675e+00 0.00000000e+00 
1.66666663e+00 3.66666675e+00 0.00000000e+00 
2.50000000e+00 3.66666675e+00 0.00000000e+00 
0.00000000e+00 4.00000000e+00 0.00000000e+00 
8.33333313e-01 4.00000000e+00 0.00000000e+00 
1.66666663e+00 4.00000000e+00 0.00000000e+00 
2.50000000e+00 4.00000000e+00 0.00000000e+00 

        </DataArray>
      </Points>
      <Cells>
        <DataArray type="Int32" Name="connectivity" format="ascii">
0 1 5 4
4 5 9 8
8 9 13 12
1 2 6 5
5 6 10 9
9 10 14 13
2 3 7 6
6 7 11 10
10 11 15 14

        </DataArray>
        <DataArray type="Int32" Name="offsets" format="ascii">
4 8 12 16 20 24 28 32 36 
        </DataArray>
        <DataArray type="UInt8" Name="types" format="ascii">
9 9 9 9 9 9 9 9 9 
        </DataArray>
      </Cells>
      <PointData>
        <DataArray type="Float64" Name="u">
          0.00000000e+00 0.00000000e+00 0.00000000e+00 0.00000000e+00 8.88888889e+01 8.80097166e+01 8.82953491e+01 8.57024932e+01 1.55555556e+02 1.53907170e+02 1.54862380e+02 1.51099153e+02 2.00000000e+02 1.97999891e+02 1.99270526e+02 1.95573237e+02 
        </DataArray>
        <DataArray type="Float64" Name="v">
          0.00000000e+00 0.00000000e+00 0.00000000e+00 0.00000000e+00 0.00000000e+00 2.30355288e-01 8.38451892e-01 -8.75382893e-02 0.00000000e+00 2.65133582e-01 9.37359516e-01 1.26513763e+00 0.00000000e+00 8.22190524e-01 1.95147640e+00 2.62106194e+00 
        </DataArray>
        <DataArray type="Float64" Name="p">
          -1.70749412e+03 -3.05985985e+03 -4.41222557e+03 -5.76459130e+03 -1.73285665e+03 -3.08197517e+03 -4.43109368e+03 -5.78021219e+03 -1.75821919e+03 -3.10409049e+03 -4.44996179e+03 -5.79583309e+03 -1.78358172e+03 -3.12620581e+03 -4.46882989e+03 -5.81145398e+03 
        </DataArray>
      </PointData>
    </Piece>
    <Piece NumberOfPoints="16" NumberOfCells="9">
      <Points>
        <DataArray type="Float64" NumberOfComponents="3" format="ascii">
          0.00000000e+00 4.00000000e+00 0.00000000e+00 
8.33333313e-01 4.00000000e+00 0.00000000e+00 
1.66666663e+00 4.00000000e+00 0.00000000e+00 
2.50000000e+00 4.00000000e+00 0.00000000e+00 
0.00000000e+00 4.33333349e+00 0.00000000e+00 
8.33333313e-01 4.33333349e+00 0.00000000e+00 
1.66666663e+00 4.33333349e+00 0.00000000e+00 
2.50000000e+00 4.33333349e+00 0.00000000e+00 
0.00000000e+00 4.66666651e+00 0.00000000e+00 
8.33333313e-01 4.66666651e+00 0.00000000e+00 
1.66666663e+00 4.66666651e+00 0.00000000e+00 
2.50000000e+00 4.66666651e+00 0.00000000e+00 
0.00000000e+00 5.00000000e+00 0.00000000e+00 
8.33333313e-01 5.00000000e+00 0.00000000e+00 
1.66666663e+00 5.00000000e+00 0.00000000e+00 
2.50000000e+00 5.00000000e+00 0.00000000e+00 

        </DataArray>
      </Points>
      <Cells>
        <DataArray type="Int32" Name="connectivity" format="ascii">
0 1 5 4
4 5 9 8
8 9 13 12
1 2 6 5
5 6 10 9
9 10 14 13
2 3 7 6
6 7 11 10
10 11 15 14

        </DataArray>
        <DataArray type="Int32" Name="offsets" format="ascii">
4 8 12 16 20 24 28 32 36 
        </DataArray>
        <DataArray type="UInt8" Name="types" format="ascii">
9 9 9 9 9 9 9 9 9 
        </DataArray>
      </Cells>
      <PointData>
        <DataArray type="Float64" Name="u">
          2.00000000e+02 1.97999891e+02 1.99270526e+02 1.95573237e+02 2.22222222e+02 2.20611115e+02 2.21776445e+02 2.19435293e+02 2.22222222e+02 2.21320591e+02 2.22581000e+02 2.21654998e+02 2.00000000e+02 1.99978807e+02 2.01420590e+02 2.01899380e+02 
        </DataArray>
        <DataArray type="Float64" Name="v">
          0.00000000e+00 8.22190524e-01 1.95147640e+00 2.62106194e+00 0.00000000e+00 1.35595480e+00 2.49240788e+00 3.89943988e+00 0.00000000e+00 1.37895158e+00 2.70380302e+00 3.83241306e+00 0.00000000e+00 1.43639086e+00 2.44669326e+00 4.32874751e+00 
        </DataArray>
        <DataArray type="Float64" Name="p">
          -1.77353160e+03 -3.13156706e+03 -4.48960252e+03 -5.84763798e+03 -1.89067146e+03 -3.24882655e+03 -4.60698163e+03 -5.96513672e+03 -2.00781133e+03 -3.36608604e+03 -4.72436075e+03 -6.08263546e+03 -2.12495119e+03 -3.48334553e+03 -4.84173986e+03 -6.20013420e+03 
        </DataArray>
      </PointData>
    </Piece>
    <Piece NumberOfPoints="16" NumberOfCells="9">
      <Points>
        <DataArray type="Float64" NumberOfComponents="3" format="ascii">
          0.00000000e+00 5.00000000e+00 0.00000000e+00 
8.33333313e-01 5.00000000e+00 0.00000000e+00 
1.66666663e+00 5.00000000e+00 0.00000000e+00 
2.50000000e+00 5.00000000e+00 0.00000000e+00 
0.00000000e+00 5.33333349e+00 0.00000000e+00 
8.33333313e-01 5.33333349e+00 0.00000000e+00 
1.66666663e+00 5.33333349e+00 0.00000000e+00 
2.50000000e+00 5.33333349e+00 0.00000000e+00 
0.00000000e+00 5.66666651e+00 0.00000000e+00 
8.33333313e-01 5.66666651e+00 0.00000000e+00 
1.66666663e+00 5.66666651e+00 0.00000000e+00 
2.50000000e+00 5.66666651e+00 0.00000000e+00 
0.00000000e+00 6.00000000e+00 0.00000000e+00 
8.33333313e-01 6.00000000e+00 0.00000000e+00 
1.66666663e+00 6.00000000e+00 0.00000000e+00 
2.50000000e+00 6.00000000e+00 0.00000000e+00 

        </DataArray>
      </Points>
      <Cells>
        <DataArray type="Int32" Name="connectivity" format="ascii">
0 1 5 4
4 5 9 8
8 9 13 12
1 2 6 5
5 6 10 9
9 10 14 13
2 3 7 6
6 7 11 10
10 11 15 14

        </DataArray>
        <DataArray type="Int32" Name="offsets" format="ascii">
4 8 12 16 20 24 28 32 36 
        </DataArray>
        <DataArray type="UInt8" Name="types" format="ascii">
9 9 9 9 9 9 9 9 9 
        </DataArray>
      </Cells>
      <PointData>
        <DataArray type="Float64" Name="u">
          2.00000000e+02 1.99978807e+02 2.01420590e+02 2.01899380e+02 1.55555556e+02 1.56863624e+02 1.57647326e+02 1.60522996e+02 8.88888889e+01 9.09880838e+01 9.06906566e+01 9.66033219e+01 0.00000000e+00 0.00000000e+00 0.00000000e+00 0.00000000e+00 
        </DataArray>
        <DataArray type="Float64" Name="v">
          0.00000000e+00 1.43639086e+00 2.44669326e+00 4.32874751e+00 0.00000000e+00 6.93884448e-01 1.44973837e+00 3.05157612e+00 0.00000000e+00 7.27439546e-01 9.44494480e-01 3.37399764e+00 0.00000000e+00 0.00000000e+00 0.00000000e+00 0.00000000e+00 
        </DataArray>
        <DataArray type="Float64" Name="p">
          -2.15879457e+03 -3.51672030e+03 -4.87464604e+03 -6.23257178e+03 -2.16422503e+03 -3.54517917e+03 -4.92613331e+03 -6.30708745e+03 -2.16965549e+03 -3.57363803e+03 -4.97762058e+03 -6.38160312e+03 -2.17508595e+03 -3.60209690e+03 -5.02910785e+03 -6.45611880e+03 
        </DataArray>
      </PointData>
    </Piece>
    <Piece NumberOfPoints="16" NumberOfCells="9">
      <Points>
        <DataArray type="Float64" NumberOfComponents="3" format="ascii">
          2.50000000e+00 0.00000000e+00 0.00000000e+00 
3.33333325e+00 0.00000000e+00 0.00000000e+00 
4.16666651e+00 0.00000000e+00 0.00000000e+00 
5.00000000e+00 0.00000000e+00 0.00000000e+00 
2.50000000e+00 3.33333343e-01 0.00000000e+00 
3.33333325e+00 3.33333343e-01 0.00000000e+00 
4.16666651e+00 3.33333343e-01 0.00000000e+00 
5.00000000e+00 3.33333343e-01 0.00000000e+00 
2.50000000e+00 6.66666687e-01 0.00000000e+00 
3.33333325e+00 6.66666687e-01 0.00000000e+00 
4.16666651e+00 6.66666687e-01 0.00000000e+00 
5.00000000e+00 6.66666687e-01 0.00000000e+00 
2.50000000e+00 1.00000000e+00 0.00000000e+00 
3.33333325e+00 1.00000000e+00 0.00000000e+00 
4.16666651e+00 1.00000000e+00 0.00000000e+00 
5.00000000e+00 1.00000000e+00 0.00000000e+00 

        </DataArray>
      </Points>
      <Cells>
        <DataArray type="Int32" Name="connectivity" format="ascii">
0 1 5 4
4 5 9 8
8 9 13 12
1 2 6 5
5 6 10 9
9 10 14 13
2 3 7 6
6 7 11 10
10 11 15 14

        </DataArray>
        <DataArray type="Int32" Name="offsets" format="ascii">
4 8 12 16 20 24 28 32 36 
        </DataArray>
        <DataArray type="UInt8" Name="types" format="ascii">
9 9 9 9 9 9 9 9 9 
        </DataArray>
      </Cells>
      <PointData>
        <DataArray type="Float64" Name="u">
          0.00000000e+00 0.00000000e+00 0.00000000e+00 0.00000000e+00 0.00000000e+00 -2.70086051e+00 -4.60724781e+00 -8.18826994e+00 0.00000000e+00 -4.75386076e+00 -8.32460449e+00 -1.39138616e+01 0.00000000e+00 -6.19165228e+00 -1.07311799e+01 -1.70382486e+01 
        </DataArray>
        <DataArray type="Float64" Name="v">
          0.00000000e+00 0.00000000e+00 0.00000000e+00 0.00000000e+00 0.00000000e+00 7.91565059e-01 8.49077556e-01 5.40062584e-01 0.00000000e+00 2.37580828e+00 2.35999089e+00 1.50805300e+00 0.00000000e+00 5.23307358e+00 4.84210149e+00 3.11233203e+00 
        </DataArray>
        <DataArray type="Float64" Name="p">
          -5.14902540e+03 -5.10793376e+03 -5.06684212e+03 -5.02575047e+03 -5.13621335e+03 -5.09521624e+03 -5.05421913e+03 -5.01322202e+03 -5.12340130e+03 -5.08249872e+03 -5.04159615e+03 -5.00069358e+03 -5.11058924e+03 -5.06978121e+03 -5.02897317e+03 -4.98816513e+03 
        </DataArray>
      </PointData>
    </Piece>
    <Piece NumberOfPoints="16" NumberOfCells="9">
      <Points>
        <DataArray type="Float64" NumberOfComponents="3" format="ascii">
          2.50000000e+00 1.00000000e+00 0.00000000e+00 
3.33333325e+00 1.00000000e+00 0.00000000e+00 
4.16666651e+00 1.00000000e+00 0.00000000e+00 
5.00000000e+00 1.00000000e+00 0.00000000e+00 
2.50000000e+00 1.33333337e+00 0.00000000e+00 
3.33333325e+00 1.33333337e+00 0.00000000e+00 
4.16666651e+00 1.33333337e+00 0.00000000e+00 
5.00000000e+00 1.33333337e+00 0.00000000e+00 
2.50000000e+00 1.66666663e+00 0.00000000e+00 
3.33333325e+00 1.66666663e+00 0.00000000e+00 
4.16666651e+00 1.66666663e+00 0.00000000e+00 
5.00000000e+00 1.66666663e+00 0.00000000e+00 
2.50000000e+00 2.00000000e+00 0.00000000e+00 
3.33333325e+00 2.00000000e+00 0.00000000e+00 
4.16666651e+00 2.00000000e+00 0.00000000e+00 
5.00000000e+00 2.00000000e+00 0.00000000e+00 

        </DataArray>
      </Points>
      <Cells>
        <DataArray type="Int32" Name="connectivity" format="ascii">
0 1 5 4
4 5 9 8
8 9 13 12
1 2 6 5
5 6 10 9
9 10 14 13
2 3 7 6
6 7 11 10
10 11 15 14

        </DataArray>
        <DataArray type="Int32" Name="offsets" format="ascii">
4 8 12 16 20 24 28 32 36 
        </DataArray>
        <DataArray type="UInt8" Name="types" format="ascii">
9 9 9 9 9 9 9 9 9 
        </DataArray>
      </Cells>
      <PointData>
        <DataArray type="Float64" Name="u">
          0.00000000e+00 -6.19165228e+00 -1.07311799e+01 -1.70382486e+01 0.00000000e+00 -7.01234869e+00 -1.15242664e+01 -1.73687274e+01 0.00000000e+00 -6.96631035e+00 -1.02570599e+01 -1.42851961e+01 0.00000000e+00 -5.49413120e+00 -6.21933372e+00 -7.05308501e+00 
        </DataArray>
        <DataArray type="Float64" Name="v">
          0.00000000e+00 5.23307358e+00 4.84210149e+00 3.11233203e+00 0.00000000e+00 8.76544481e+00 7.45980323e+00 4.48229666e+00 0.00000000e+00 1.15705978e+01 9.37639732e+00 5.16342840e+00 0.00000000e+00 1.46422102e+01 1.07037067e+01 4.92134813e+00 
        </DataArray>
        <DataArray type="Float64" Name="p">
          -5.09489549e+03 -5.06238500e+03 -5.02987451e+03 -4.99736402e+03 -5.18138523e+03 -5.13211682e+03 -5.08284840e+03 -5.03357999e+03 -5.26787497e+03 -5.20184863e+03 -5.13582230e+03 -5.06979596e+03 -5.35436471e+03 -5.27158045e+03 -5.18879619e+03 -5.10601193e+03 
        </DataArray>
      </PointData>
    </Piece>
    <Piece NumberOfPoints="16" NumberOfCells="9">
      <Points>
        <DataArray type="Float64" NumberOfComponents="3" format="ascii">
          2.50000000e+00 2.00000000e+00 0.00000000e+00 
3.33333325e+00 2.00000000e+00 0.00000000e+00 
4.16666651e+00 2.00000000e+00 0.00000000e+00 
5.00000000e+00 2.00000000e+00 0.00000000e+00 
2.50000000e+00 2.33333325e+00 0.00000000e+00 
3.33333325e+00 2.33333325e+00 0.00000000e+00 
4.16666651e+00 2.33333325e+00 0.00000000e+00 
5.00000000e+00 2.33333325e+00 0.00000000e+00 
2.50000000e+00 2.66666675e+00 0.00000000e+00 
3.33333325e+00 2.66666675e+00 0.00000000e+00 
4.16666651e+00 2.66666675e+00 0.00000000e+00 
5.00000000e+00 2.66666675e+00 0.00000000e+00 
2.50000000e+00 3.00000000e+00 0.00000000e+00 
3.33333325e+00 3.00000000e+00 0.00000000e+00 
4.16666651e+00 3.00000000e+00 0.00000000e+00 
5.00000000e+00 3.00000000e+00 0.00000000e+00 

        </DataArray>
      </Points>
      <Cells>
        <DataArray type="Int32" Name="connectivity" format="ascii">
0 1 5 4
4 5 9 8
8 9 13 12
1 2 6 5
5 6 10 9
9 10 14 13
2 3 7 6
6 7 11 10
10 11 15 14

        </DataArray>
        <DataArray type="Int32" Name="offsets" format="ascii">
4 8 12 16 20 24 28 32 36 
        </DataArray>
        <DataArray type="UInt8" Name="types" format="ascii">
9 9 9 9 9 9 9 9 9 
        </DataArray>
      </Cells>
      <PointData>
        <DataArray type="Float64" Name="u">
          0.00000000e+00 -5.49413120e+00 -6.21933372e+00 -7.05308501e+00 0.00000000e+00 -1.42231111e+00 1.28685605e+00 6.55432859e+00 0.00000000e+00 1.03208822e+01 1.60903025e+01 2.70544996e+01 0.00000000e+00 4.16217165e+01 4.39740344e+01 5.72353472e+01 
        </DataArray>
        <DataArray type="Float64" Name="v">
          0.00000000e+00 1.46422102e+01 1.07037067e+01 4.92134813e+00 0.00000000e+00 1.64235019e+01 9.52744094e+00 2.85182735e+00 0.00000000e+00 1.38112208e+01 7.63802984e+00 1.28637593e+00 0.00000000e+00 4.27169638e+00 2.39355121e+00 5.59857505e-01 
        </DataArray>
        <DataArray type="Float64" Name="p">
          -5.32304169e+03 -5.28135377e+03 -5.23966585e+03 -5.19797793e+03 -5.63501742e+03 -5.44071850e+03 -5.24641958e+03 -5.05212066e+03 -5.94699316e+03 -5.60008324e+03 -5.25317331e+03 -4.90626339e+03 -6.25896889e+03 -5.75944797e+03 -5.25992705e+03 -4.76040613e+03 
        </DataArray>
      </PointData>
    </Piece>
    <Piece NumberOfPoints="16" NumberOfCells="9">
      <Points>
        <DataArray type="Float64" NumberOfComponents="3" format="ascii">
          2.50000000e+00 3.00000000e+00 0.00000000e+00 
3.33333325e+00 3.00000000e+00 0.00000000e+00 
4.16666651e+00 3.00000000e+00 0.00000000e+00 
5.00000000e+00 3.00000000e+00 0.00000000e+00 
2.50000000e+00 3.33333325e+00 0.00000000e+00 
3.33333325e+00 3.33333325e+00 0.00000000e+00 
4.16666651e+00 3.33333325e+00 0.00000000e+00 
5.00000000e+00 3.33333325e+00 0.00000000e+00 
2.50000000e+00 3.66666675e+00 0.00000000e+00 
3.33333325e+00 3.66666675e+00 0.00000000e+00 
4.16666651e+00 3.66666675e+00 0.00000000e+00 
5.00000000e+00 3.66666675e+00 0.00000000e+00 
2.50000000e+00 4.00000000e+00 0.00000000e+00 
3.33333325e+00 4.00000000e+00 0.00000000e+00 
4.16666651e+00 4.00000000e+00 0.00000000e+00 
5.00000000e+00 4.00000000e+00 0.00000000e+00 

        </DataArray>
      </Points>
      <Cells>
        <DataArray type="Int32" Name="connectivity" format="ascii">
0 1 5 4
4 5 9 8
8 9 13 12
1 2 6 5
5 6 10 9
9 10 14 13
2 3 7 6
6 7 11 10
10 11 15 14

        </DataArray>
        <DataArray type="Int32" Name="offsets" format="ascii">
4 8 12 16 20 24 28 32 36 
        </DataArray>
        <DataArray type="UInt8" Name="types" format="ascii">
9 9 9 9 9 9 9 9 9 
        </DataArray>
      </Cells>
      <PointData>
        <DataArray type="Float64" Name="u">
          0.00000000e+00 4.16217165e+01 4.39740344e+01 5.72353472e+01 8.57024932e+01 8.88878791e+01 8.96683716e+01 9.17212818e+01 1.51099153e+02 1.44404806e+02 1.40683239e+02 1.34341965e+02 1.95573237e+02 1.87045829e+02 1.82835889e+02 1.72299602e+02 
        </DataArray>
        <DataArray type="Float64" Name="v">
          0.00000000e+00 4.27169638e+00 2.39355121e+00 5.59857505e-01 -8.75382893e-02 -2.89763704e+00 -3.97261239e-02 3.26807246e+00 1.26513763e+00 -2.95013159e+00 -1.20289621e+00 3.88520108e+00 2.62106194e+00 6.83410405e-01 2.85445785e+00 6.62232796e+00 
        </DataArray>
        <DataArray type="Float64" Name="p">
          -6.29569066e+03 -5.70489805e+03 -5.11410544e+03 -4.52331283e+03 -5.91844587e+03 -5.55187607e+03 -5.18530627e+03 -4.81873647e+03 -5.54120107e+03 -5.39885408e+03 -5.25650709e+03 -5.11416010e+03 -5.16395628e+03 -5.24583210e+03 -5.32770792e+03 -5.40958374e+03 
        </DataArray>
      </PointData>
    </Piece>
    <Piece NumberOfPoints="16" NumberOfCells="9">
      <Points>
        <DataArray type="Float64" NumberOfComponents="3" format="ascii">
          2.50000000e+00 4.00000000e+00 0.00000000e+00 
3.33333325e+00 4.00000000e+00 0.00000000e+00 
4.16666651e+00 4.00000000e+00 0.00000000e+00 
5.00000000e+00 4.00000000e+00 0.00000000e+00 
2.50000000e+00 4.33333349e+00 0.00000000e+00 
3.33333325e+00 4.33333349e+00 0.00000000e+00 
4.16666651e+00 4.33333349e+00 0.00000000e+00 
5.00000000e+00 4.33333349e+00 0.00000000e+00 
2.50000000e+00 4.66666651e+00 0.00000000e+00 
3.33333325e+00 4.66666651e+00 0.00000000e+00 
4.16666651e+00 4.66666651e+00 0.00000000e+00 
5.00000000e+00 4.66666651e+00 0.00000000e+00 
2.50000000e+00 5.00000000e+00 0.00000000e+00 
3.33333325e+00 5.00000000e+00 0.00000000e+00 
4.16666651e+00 5.00000000e+00 0.00000000e+00 
5.00000000e+00 5.00000000e+00 0.00000000e+00 

        </DataArray>
      </Points>
      <Cells>
        <DataArray type="Int32" Name="connectivity" format="ascii">
0 1 5 4
4 5 9 8
8 9 13 12
1 2 6 5
5 6 10 9
9 10 14 13
2 3 7 6
6 7 11 10
10 11 15 14

        </DataArray>
        <DataArray type="Int32" Name="offsets" format="ascii">
4 8 12 16 20 24 28 32 36 
        </DataArray>
        <DataArray type="UInt8" Name="types" format="ascii">
9 9 9 9 9 9 9 9 9 
        </DataArray>
      </Cells>
      <PointData>
        <DataArray type="Float64" Name="u">
          1.95573237e+02 1.87045829e+02 1.82835889e+02 1.72299602e+02 2.19435293e+02 2.10667260e+02 2.07060818e+02 1.96767988e+02 2.21654998e+02 2.13802928e+02 2.11975357e+02 2.03391175e+02 2.01899380e+02 1.95733547e+02 1.96899304e+02 1.90681964e+02 
        </DataArray>
        <DataArray type="Float64" Name="v">
          2.62106194e+00 6.83410405e-01 2.85445785e+00 6.62232796e+00 3.89943988e+00 5.26840590e+00 6.70967150e+00 9.14344381e+00 3.83241306e+00 6.37909627e+00 9.31465588e+00 1.16796423e+01 4.32874751e+00 1.00195820e+01 1.19498168e+01 1.25338255e+01 
        </DataArray>
        <DataArray type="Float64" Name="p">
          -5.02267145e+03 -5.20049172e+03 -5.37831200e+03 -5.55613228e+03 -5.19416531e+03 -5.39785297e+03 -5.60154063e+03 -5.80522829e+03 -5.36565918e+03 -5.59521422e+03 -5.82476926e+03 -6.05432430e+03 -5.53715305e+03 -5.79257547e+03 -6.04799789e+03 -6.30342031e+03 
        </DataArray>
      </PointData>
    </Piece>
    <Piece NumberOfPoints="16" NumberOfCells="9">
      <Points>
        <DataArray type="Float64" NumberOfComponents="3" format="ascii">
          2.50000000e+00 5.00000000e+00 0.00000000e+00 
3.33333325e+00 5.00000000e+00 0.00000000e+00 
4.16666651e+00 5.00000000e+00 0.00000000e+00 
5.00000000e+00 5.00000000e+00 0.00000000e+00 
2.50000000e+00 5.33333349e+00 0.00000000e+00 
3.33333325e+00 5.33333349e+00 0.00000000e+00 
4.16666651e+00 5.33333349e+00 0.00000000e+00 
5.00000000e+00 5.33333349e+00 0.00000000e+00 
2.50000000e+00 5.66666651e+00 0.00000000e+00 
3.33333325e+00 5.66666651e+00 0.00000000e+00 
4.16666651e+00 5.66666651e+00 0.00000000e+00 
5.00000000e+00 5.66666651e+00 0.00000000e+00 
2.50000000e+00 6.00000000e+00 0.00000000e+00 
3.33333325e+00 6.00000000e+00 0.00000000e+00 
4.16666651e+00 6.00000000e+00 0.00000000e+00 
5.00000000e+00 6.00000000e+00 0.00000000e+00 

        </DataArray>
      </Points>
      <Cells>
        <DataArray type="Int32" Name="connectivity" format="ascii">
0 1 5 4
4 5 9 8
8 9 13 12
1 2 6 5
5 6 10 9
9 10 14 13
2 3 7 6
6 7 11 10
10 11 15 14

        </DataArray>
        <DataArray type="Int32" Name="offsets" format="ascii">
4 8 12 16 20 24 28 32 36 
        </DataArray>
        <DataArray type="UInt8" Name="types" format="ascii">
9 9 9 9 9 9 9 9 9 
        </DataArray>
      </Cells>
      <PointData>
        <DataArray type="Float64" Name="u">
          2.01899380e+02 1.95733547e+02 1.96899304e+02 1.90681964e+02 1.60522996e+02 1.57906547e+02 1.61274552e+02 1.61560918e+02 9.66033219e+01 1.03312285e+02 1.11949667e+02 1.21187369e+02 0.00000000e+00 5.17358603e+01 6.10103374e+01 8.23908605e+01 
        </DataArray>
        <DataArray type="Float64" Name="v">
          4.32874751e+00 1.00195820e+01 1.19498168e+01 1.25338255e+01 3.05157612e+00 1.12482441e+01 1.29695434e+01 1.11658966e+01 3.37399764e+00 1.08255120e+01 1.10794809e+01 9.58150371e+00 0.00000000e+00 4.29744457e-01 4.57393983e+00 8.54397618e+00 
        </DataArray>
        <DataArray type="Float64" Name="p">
          -5.73046326e+03 -5.91199090e+03 -6.09351854e+03 -6.27504618e+03 -6.36444235e+03 -6.25874254e+03 -6.15304272e+03 -6.04734290e+03 -6.99842145e+03 -6.60549417e+03 -6.21256690e+03 -5.81963962e+03 -7.63240054e+03 -6.95224581e+03 -6.27209108e+03 -5.59193634e+03 
        </DataArray>
      </PointData>
    </Piece>
    <Piece NumberOfPoints="16" NumberOfCells="9">
      <Points>
        <DataArray type="Float64" NumberOfComponents="3" format="ascii">
          2.50000000e+00 6.00000000e+00 0.00000000e+00 
3.33333325e+00 6.00000000e+00 0.00000000e+00 
4.16666651e+00 6.00000000e+00 0.00000000e+00 
5.00000000e+00 6.00000000e+00 0.00000000e+00 
2.50000000e+00 6.33333349e+00 0.00000000e+00 
3.33333325e+00 6.33333349e+00 0.00000000e+00 
4.16666651e+00 6.33333349e+00 0.00000000e+00 
5.00000000e+00 6.33333349e+00 0.00000000e+00 
2.50000000e+00 6.66666651e+00 0.00000000e+00 
3.33333325e+00 6.66666651e+00 0.00000000e+00 
4.16666651e+00 6.66666651e+00 0.00000000e+00 
5.00000000e+00 6.66666651e+00 0.00000000e+00 
2.50000000e+00 7.00000000e+00 0.00000000e+00 
3.33333325e+00 7.00000000e+00 0.00000000e+00 
4.16666651e+00 7.00000000e+00 0.00000000e+00 
5.00000000e+00 7.00000000e+00 0.00000000e+00 

        </DataArray>
      </Points>
      <Cells>
        <DataArray type="Int32" Name="connectivity" format="ascii">
0 1 5 4
4 5 9 8
8 9 13 12
1 2 6 5
5 6 10 9
9 10 14 13
2 3 7 6
6 7 11 10
10 11 15 14

        </DataArray>
        <DataArray type="Int32" Name="offsets" format="ascii">
4 8 12 16 20 24 28 32 36 
        </DataArray>
        <DataArray type="UInt8" Name="types" format="ascii">
9 9 9 9 9 9 9 9 9 
        </DataArray>
      </Cells>
      <PointData>
        <DataArray type="Float64" Name="u">
          0.00000000e+00 5.17358603e+01 6.10103374e+01 8.23908605e+01 0.00000000e+00 1.46713322e+01 2.60578909e+01 4.54387924e+01 0.00000000e+00 2.20716983e-01 6.77763326e+00 1.85678775e+01 0.00000000e+00 -5.06664195e+00 -3.47724269e+00 -7.38876925e-01 
        </DataArray>
        <DataArray type="Float64" Name="v">
          0.00000000e+00 4.29744457e-01 4.57393983e+00 8.54397618e+00 0.00000000e+00 -1.26600223e+01 -4.18518959e+00 5.19886930e+00 0.00000000e+00 -1.71250468e+01 -8.43101410e+00 1.33716745e+00 0.00000000e+00 -1.60646146e+01 -1.14600441e+01 -3.33979203e+00 
        </DataArray>
        <DataArray type="Float64" Name="p">
          -7.52976771e+03 -6.94135676e+03 -6.35294581e+03 -5.76453486e+03 -7.17356708e+03 -6.77219639e+03 -6.37082570e+03 -5.96945501e+03 -6.81736644e+03 -6.60303602e+03 -6.38870559e+03 -6.17437516e+03 -6.46116581e+03 -6.43387564e+03 -6.40658548e+03 -6.37929531e+03 
        </DataArray>
      </PointData>
    </Piece>
    <Piece NumberOfPoints="16" NumberOfCells="9">
      <Points>
        <DataArray type="Float64" NumberOfComponents="3" format="ascii">
          2.50000000e+00 7.00000000e+00 0.00000000e+00 
3.33333325e+00 7.00000000e+00 0.00000000e+00 
4.16666651e+00 7.00000000e+00 0.00000000e+00 
5.00000000e+00 7.00000000e+00 0.00000000e+00 
2.50000000e+00 7.33333349e+00 0.00000000e+00 
3.33333325e+00 7.33333349e+00 0.00000000e+00 
4.16666651e+00 7.33333349e+00 0.00000000e+00 
5.00000000e+00 7.33333349e+00 0.00000000e+00 
2.50000000e+00 7.66666651e+00 0.00000000e+00 
3.33333325e+00 7.66666651e+00 0.00000000e+00 
4.16666651e+00 7.66666651e+00 0.00000000e+00 
5.00000000e+00 7.66666651e+00 0.00000000e+00 
2.50000000e+00 8.00000000e+00 0.00000000e+00 
3.33333325e+00 8.00000000e+00 0.00000000e+00 
4.16666651e+00 8.00000000e+00 0.00000000e+00 
5.00000000e+00 8.00000000e+00 0.00000000e+00 

        </DataArray>
      </Points>
      <Cells>
        <DataArray type="Int32" Name="connectivity" format="ascii">
0 1 5 4
4 5 9 8
8 9 13 12
1 2 6 5
5 6 10 9
9 10 14 13
2 3 7 6
6 7 11 10
10 11 15 14

        </DataArray>
        <DataArray type="Int32" Name="offsets" format="ascii">
4 8 12 16 20 24 28 32 36 
        </DataArray>
        <DataArray type="UInt8" Name="types" format="ascii">
9 9 9 9 9 9 9 9 9 
        </DataArray>
      </Cells>
      <PointData>
        <DataArray type="Float64" Name="u">
          0.00000000e+00 -5.06664195e+00 -3.47724269e+00 -7.38876925e-01 0.00000000e+00 -7.34997798e+00 -9.64888362e+00 -1.22930871e+01 0.00000000e+00 -7.91634176e+00 -1.23794686e+01 -1.84628214e+01 0.00000000e+00 -7.33510898e+00 -1.23500511e+01 -1.98780303e+01 
        </DataArray>
        <DataArray type="Float64" Name="v">
          0.00000000e+00 -1.60646146e+01 -1.14600441e+01 -3.33979203e+00 0.00000000e+00 -1.32120603e+01 -1.08373565e+01 -5.11687773e+00 0.00000000e+00 -1.02626067e+01 -8.97105908e+00 -5.11603827e+00 0.00000000e+00 -6.29083453e+00 -5.99446035e+00 -3.90403055e+00 
        </DataArray>
        <DataArray type="Float64" Name="p">
          -6.50653739e+03 -6.42286921e+03 -6.33920102e+03 -6.25553283e+03 -6.40965667e+03 -6.33744832e+03 -6.26523998e+03 -6.19303163e+03 -6.31277595e+03 -6.25202744e+03 -6.19127893e+03 -6.13053042e+03 -6.21589523e+03 -6.16660656e+03 -6.11731788e+03 -6.06802921e+03 
        </DataArray>
      </PointData>
    </Piece>
    <Piece NumberOfPoints="16" NumberOfCells="9">
      <Points>
        <DataArray type="Float64" NumberOfComponents="3" format="ascii">
          2.50000000e+00 8.00000000e+00 0.00000000e+00 
3.33333325e+00 8.00000000e+00 0.00000000e+00 
4.16666651e+00 8.00000000e+00 0.00000000e+00 
5.00000000e+00 8.00000000e+00 0.00000000e+00 
2.50000000e+00 8.33333302e+00 0.00000000e+00 
3.33333325e+00 8.33333302e+00 0.00000000e+00 
4.16666651e+00 8.33333302e+00 0.00000000e+00 
5.00000000e+00 8.33333302e+00 0.00000000e+00 
2.50000000e+00 8.66666698e+00 0.00000000e+00 
3.33333325e+00 8.66666698e+00 0.00000000e+00 
4.16666651e+00 8.66666698e+00 0.00000000e+00 
5.00000000e+00 8.66666698e+00 0.00000000e+00 
2.50000000e+00 9.00000000e+00 0.00000000e+00 
3.33333325e+00 9.00000000e+00 0.00000000e+00 
4.16666651e+00 9.00000000e+00 0.00000000e+00 
5.00000000e+00 9.00000000e+00 0.00000000e+00 

        </DataArray>
      </Points>
      <Cells>
        <DataArray type="Int32" Name="connectivity" format="ascii">
0 1 5 4
4 5 9 8
8 9 13 12
1 2 6 5
5 6 10 9
9 10 14 13
2 3 7 6
6 7 11 10
10 11 15 14

        </DataArray>
        <DataArray type="Int32" Name="offsets" format="ascii">
4 8 12 16 20 24 28 32 36 
        </DataArray>
        <DataArray type="UInt8" Name="types" format="ascii">
9 9 9 9 9 9 9 9 9 
        </DataArray>
      </Cells>
      <PointData>
        <DataArray type="Float64" Name="u">
          0.00000000e+00 -7.33510898e+00 -1.23500511e+01 -1.98780303e+01 0.00000000e+00 -5.82271567e+00 -9.96382137e+00 -1.70846777e+01 0.00000000e+00 -3.38550599e+00 -5.64451938e+00 -1.02559082e+01 0.00000000e+00 0.00000000e+00 0.00000000e+00 0.00000000e+00 
        </DataArray>
        <DataArray type="Float64" Name="v">
          0.00000000e+00 -6.29083453e+00 -5.99446035e+00 -3.90403055e+00 0.00000000e+00 -2.89557359e+00 -2.92078358e+00 -1.98864907e+00 0.00000000e+00 -9.95276745e-01 -1.07310266e+00 -7.86919221e-01 0.00000000e+00 0.00000000e+00 0.00000000e+00 0.00000000e+00 
        </DataArray>
        <DataArray type="Float64" Name="p">
          -6.23129242e+03 -6.17095748e+03 -6.11062253e+03 -6.05028759e+03 -6.24524840e+03 -6.18505948e+03 -6.12487056e+03 -6.06468163e+03 -6.25920439e+03 -6.19916149e+03 -6.13911858e+03 -6.07907568e+03 -6.27316038e+03 -6.21326349e+03 -6.15336661e+03 -6.09346972e+03 
        </DataArray>
      </PointData>
    </Piece>
    <Piece NumberOfPoints="16" NumberOfCells="9">
      <Points>
        <DataArray type="Float64" NumberOfComponents="3" format="ascii">
          5.00000000e+00 0.00000000e+00 0.00000000e+00 
5.83333349e+00 0.00000000e+00 0.00000000e+00 
6.66666651e+00 0.00000000e+00 0.00000000e+00 
7.50000000e+00 0.00000000e+00 0.00000000e+00 
5.00000000e+00 3.33333343e-01 0.00000000e+00 
5.83333349e+00 3.33333343e-01 0.00000000e+00 
6.66666651e+00 3.33333343e-01 0.00000000e+00 
7.50000000e+00 3.33333343e-01 0.00000000e+00 
5.00000000e+00 6.66666687e-01 0.00000000e+00 
5.83333349e+00 6.66666687e-01 0.00000000e+00 
6.66666651e+00 6.66666687e-01 0.00000000e+00 
7.50000000e+00 6.66666687e-01 0.00000000e+00 
5.00000000e+00 1.00000000e+00 0.00000000e+00 
5.83333349e+00 1.00000000e+00 0.00000000e+00 
6.66666651e+00 1.00000000e+00 0.00000000e+00 
7.50000000e+00 1.00000000e+00 0.00000000e+00 

        </DataArray>
      </Points>
      <Cells>
        <DataArray type="Int32" Name="connectivity" format="ascii">
0 1 5 4
4 5 9 8
8 9 13 12
1 2 6 5
5 6 10 9
9 10 14 13
2 3 7 6
6 7 11 10
10 11 15 14

        </DataArray>
        <DataArray type="Int32" Name="offsets" format="ascii">
4 8 12 16 20 24 28 32 36 
        </DataArray>
        <DataArray type="UInt8" Name="types" format="ascii">
9 9 9 9 9 9 9 9 9 
        </DataArray>
      </Cells>
      <PointData>
        <DataArray type="Float64" Name="u">