<?xml version="1.0"?>
<VTKFile type="UnstructuredGrid" version="0.1" byte_order="LittleEndian">
  <UnstructuredGrid>
    <Piece NumberOfPoints="16" NumberOfCells="9">
      <Points>
        <DataArray type="Float64" NumberOfComponents="3" format="ascii">
          0.00000000e+00 3.00000000e+00 0.00000000e+00 
8.33333313e-01 3.00000000e+00 0.00000000e+00 
1.66666663e+00 3.00000000e+00 0.00000000e+00 
2.50000000e+00 3.00000000e+00 0.00000000e+00 
0.00000000e+00 3.33333325e+00 0.00000000e+00 
8.33333313e-01 3.33333325e+00 0.00000000e+00 
1.66666663e+00 3.33333325e+00 0.00000000e+00 
2.50000000e+00 3.33333325e+00 0.00000000e+00 
0.00000000e+00 3.66666675e+00 0.00000000e+00 
8.33333313e-01 3.66666675e+00 0.00000000e+00 
1.66666663e+00 3.66666675e+00 0.00000000e+00 
2.50000000e+00 3.66666675e+00 0.00000000e+00 
0.00000000e+00 4.00000000e+00 0.00000000e+00 
8.33333313e-01 4.00000000e+00 0.00000000e+00 
1.66666663e+00 4.00000000e+00 0.00000000e+00 
2.50000000e+00 4.00000000e+00 0.00000000e+00 

        </DataArray>
      </Points>
      <Cells>
        <DataArray type="Int32" Name="connectivity" format="ascii">
0 1 5 4
4 5 9 8
8 9 13 12
1 2 6 5
5 6 10 9
9 10 14 13
2 3 7 6
6 7 11 10
10 11 15 14

        </DataArray>
        <DataArray type="Int32" Name="offsets" format="ascii">
4 8 12 16 20 24 28 32 36 
        </DataArray>
        <DataArray type="UInt8" Name="types" format="ascii">
9 9 9 9 9 9 9 9 9 
        </DataArray>
      </Cells>
      <PointData>
        <DataArray type="Float64" Name="u">
          0.00000000e+00 0.00000000e+00 0.00000000e+00 0.00000000e+00 8.88888889e+01 8.94673976e+01 8.94946508e+01 9.10501945e+01 1.55555556e+02 1.55373053e+02 1.56254814e+02 1.55820847e+02 2.00000000e+02 1.98994397e+02 2.00357817e+02 1.98773372e+02 
        </DataArray>
        <DataArray type="Float64" Name="v">
          0.00000000e+00 0.00000000e+00 0.00000000e+00 0.00000000e+00 0.00000000e+00 -2.42813826e-01 -3.89995696e-02 -1.67596695e+00 0.00000000e+00 -2.11610841e-01 -2.38077612e-01 -8.50714165e-01 0.00000000e+00 -3.00651524e-01 -2.34070536e-01 -8.17098937e-01 
        </DataArray>
        <DataArray type="Float64" Name="p">
          -2.07993935e+03 -3.47034794e+03 -4.86075653e+03 -6.25116511e+03 -2.08985231e+03 -3.46765154e+03 -4.84545077e+03 -6.22325001e+03 -2.09976526e+03 -3.46495514e+03 -4.83014502e+03 -6.19533490e+03 -2.10967821e+03 -3.46225874e+03 -4.81483927e+03 -6.16741980e+03 
        </DataArray>
      </PointData>
    </Piece>
    <Piece NumberOfPoints="16" NumberOfCells="9">
      <Points>
        <DataArray type="Float64" NumberOfComponents="3" format="ascii">
          0.00000000e+00 4.00000000e+00 0.00000000e+00 
8.33333313e-01 4.00000000e+00 0.00000000e+00 
1.66666663e+00 4.00000000e+00 0.00000000e+00 
2.50000000e+00 4.00000000e+00 0.00000000e+00 
0.00000000e+00 4.33333349e+00 0.00000000e+00 
8.33333313e-01 4.33333349e+00 0.00000000e+00 
1.66666663e+00 4.33333349e+00 0.00000000e+00 
2.50000000e+00 4.33333349e+00 0.00000000e+00 
0.00000000e+00 4.66666651e+00 0.00000000e+00 
8.33333313e-01 4.66666651e+00 0.00000000e+00 
1.66666663e+00 4.66666651e+00 0.00000000e+00 
2.50000000e+00 4.66666651e+00 0.00000000e+00 
0.00000000e+00 5.00000000e+00 0.00000000e+00 
8.33333313e-01 5.00000000e+00 0.00000000e+00 
1.66666663e+00 5.00000000e+00 0.00000000e+00 
2.50000000e+00 5.00000000e+00 0.00000000e+00 

        </DataArray>
      </Points>
      <Cells>
        <DataArray type="Int32" Name="connectivity" format="ascii">
0 1 5 4
4 5 9 8
8 9 13 12
1 2 6 5
5 6 10 9
9 10 14 13
2 3 7 6
6 7 11 10
10 11 15 14

        </DataArray>
        <DataArray type="Int32" Name="offsets" format="ascii">
4 8 12 16 20 24 28 32 36 
        </DataArray>
        <DataArray type="UInt8" Name="types" format="ascii">
9 9 9 9 9 9 9 9 9 
        </DataArray>
      </Cells>
      <PointData>
        <DataArray type="Float64" Name="u">
          2.00000000e+02 1.98994397e+02 2.00357817e+02 1.98773372e+02 2.22222222e+02 2.20974399e+02 2.22200875e+02 2.20613378e+02 2.22222222e+02 2.20974399e+02 2.22200875e+02 2.20613378e+02 2.00000000e+02 1.98994397e+02 2.00357817e+02 1.98773372e+02 
        </DataArray>
        <DataArray type="Float64" Name="v">
          0.00000000e+00 -3.00651524e-01 -2.34070536e-01 -8.17098937e-01 0.00000000e+00 -1.27683847e-02 -1.01382181e-01 3.79460783e-02 0.00000000e+00 1.27682572e-02 1.01381938e-01 -3.79464413e-02 0.00000000e+00 3.00651419e-01 2.34070330e-01 8.17098609e-01 
        </DataArray>
        <DataArray type="Float64" Name="p">
          -2.08860476e+03 -3.44847077e+03 -4.80833679e+03 -6.16820280e+03 -2.08860475e+03 -3.44847077e+03 -4.80833678e+03 -6.16820280e+03 -2.08860475e+03 -3.44847076e+03 -4.80833678e+03 -6.16820279e+03 -2.08860474e+03 -3.44847076e+03 -4.80833677e+03 -6.16820279e+03 
        </DataArray>
      </PointData>
    </Piece>
    <Piece NumberOfPoints="16" NumberOfCells="9">
      <Points>
        <DataArray type="Float64" NumberOfComponents="3" format="ascii">
          0.00000000e+00 5.00000000e+00 0.00000000e+00 
8.33333313e-01 5.00000000e+00 0.00000000e+00 
1.66666663e+00 5.00000000e+00 0.00000000e+00 
2.50000000e+00 5.00000000e+00 0.00000000e+00 
0.00000000e+00 5.33333349e+00 0.00000000e+00 
8.33333313e-01 5.33333349e+00 0.00000000e+00 
1.66666663e+00 5.33333349e+00 0.00000000e+00 
2.50000000e+00 5.33333349e+00 0.00000000e+00 
0.00000000e+00 5.66666651e+00 0.00000000e+00 
8.33333313e-01 5.66666651e+00 0.00000000e+00 
1.66666663e+00 5.66666651e+00 0.00000000e+00 
2.50000000e+00 5.66666651e+00 0.00000000e+00 
0.00000000e+00 6.00000000e+00 0.00000000e+00 
8.33333313e-01 6.00000000e+00 0.00000000e+00 
1.66666663e+00 6.00000000e+00 0.00000000e+00 
2.50000000e+00 6.00000000e+00 0.00000000e+00 

        </DataArray>
      </Points>
      <Cells>
        <DataArray type="Int32" Name="connectivity" format="ascii">
0 1 5 4
4 5 9 8
8 9 13 12
1 2 6 5
5 6 10 9
9 10 14 13
2 3 7 6
6 7 11 10
10 11 15 14

        </DataArray>
        <DataArray type="Int32" Name="offsets" format="ascii">
4 8 12 16 20 24 28 32 36 
        </DataArray>
        <DataArray type="UInt8" Name="types" format="ascii">
9 9 9 9 9 9 9 9 9 
        </DataArray>
      </Cells>
      <PointData>
        <DataArray type="Float64" Name="u">
          2.00000000e+02 1.98994397e+02 2.00357817e+02 1.98773372e+02 1.55555556e+02 1.55373053e+02 1.56254814e+02 1.55820847e+02 8.88888889e+01 8.94673975e+01 8.94946507e+01 9.10501940e+01 0.00000000e+00 0.00000000e+00 0.00000000e+00 0.00000000e+00 
        </DataArray>
        <DataArray type="Float64" Name="v">
          0.00000000e+00 3.00651419e-01 2.34070330e-01 8.17098609e-01 0.00000000e+00 2.11610797e-01 2.38077499e-01 8.50713960e-01 0.00000000e+00 2.42813781e-01 3.89994856e-02 1.67596679e+00 0.00000000e+00 0.00000000e+00 0.00000000e+00 0.00000000e+00 
        </DataArray>
        <DataArray type="Float64" Name="p">
          -2.10967819e+03 -3.46225872e+03 -4.81483925e+03 -6.16741978e+03 -2.09976524e+03 -3.46495512e+03 -4.83014500e+03 -6.19533488e+03 -2.08985228e+03 -3.46765152e+03 -4.84545075e+03 -6.22324998e+03 -2.07993933e+03 -3.47034791e+03 -4.86075650e+03 -6.25116508e+03 
        </DataArray>
      </PointData>
    </Piece>
    <Piece NumberOfPoints="16" NumberOfCells="9">
      <Points>
        <DataArray type="Float64" NumberOfComponents="3" format="ascii">
          2.50000000e+00 0.00000000e+00 0.00000000e+00 
3.33333325e+00 0.00000000e+00 0.00000000e+00 
4.16666651e+00 0.00000000e+00 0.00000000e+00 
5.00000000e+00 0.00000000e+00 0.00000000e+00 
2.50000000e+00 3.33333343e-01 0.00000000e+00 
3.33333325e+00 3.33333343e-01 0.00000000e+00 
4.16666651e+00 3.33333343e-01 0.00000000e+00 
5.00000000e+00 3.33333343e-01 0.00000000e+00 
2.50000000e+00 6.66666687e-01 0.00000000e+00 
3.33333325e+00 6.66666687e-01 0.00000000e+00 
4.16666651e+00 6.66666687e-01 0.00000000e+00 
5.00000000e+00 6.66666687e-01 0.00000000e+00 
2.50000000e+00 1.00000000e+00 0.00000000e+00 
3.33333325e+00 1.00000000e+00 0.00000000e+00 
4.16666651e+00 1.00000000e+00 0.00000000e+00 
5.00000000e+00 1.00000000e+00 0.00000000e+00 

        </DataArray>
      </Points>
      <Cells>
        <DataArray type="Int32" Name="connectivity" format="ascii">
0 1 5 4
4 5 9 8
8 9 13 12
1 2 6 5
5 6 10 9
9 10 14 13
2 3 7 6
6 7 11 10
10 11 15 14

        </DataArray>
        <DataArray type="Int32" Name="offsets" format="ascii">
4 8 12 16 20 24 28 32 36 
        </DataArray>
        <DataArray type="UInt8" Name="types" format="ascii">
9 9 9 9 9 9 9 9 9 
        </DataArray>
      </Cells>
      <PointData>
        <DataArray type="Float64" Name="u">
          0.00000000e+00 0.00000000e+00 0.00000000e+00 0.00000000e+00 0.00000000e+00 -3.00937981e+00 -5.07956437e+00 -9.13002392e+00 0.00000000e+00 -5.24165033e+00 -9.08135821e+00 -1.53674995e+01 0.00000000e+00 -6.72512487e+00 -1.14994763e+01 -1.83913070e+01 
        </DataArray>
        <DataArray type="Float64" Name="v">
          0.00000000e+00 0.00000000e+00 0.00000000e+00 0.00000000e+00 0.00000000e+00 8.83488714e-01 9.48141079e-01 6.55205838e-01 0.00000000e+00 2.61314122e+00 2.61269198e+00 1.74493501e+00 0.00000000e+00 5.72051854e+00 5.35876114e+00 3.51571182e+00 
        </DataArray>
        <DataArray type="Float64" Name="p">
          -5.83855507e+03 -5.78941621e+03 -5.74027735e+03 -5.69113849e+03 -5.82526284e+03 -5.77600130e+03 -5.72673976e+03 -5.67747822e+03 -5.81197060e+03 -5.76258639e+03 -5.71320217e+03 -5.66381796e+03 -5.79867837e+03 -5.74917148e+03 -5.69966458e+03 -5.65015769e+03 
        </DataArray>
      </PointData>
    </Piece>
    <Piece NumberOfPoints="16" NumberOfCells="9">
      <Points>
        <DataArray type="Float64" NumberOfComponents="3" format="ascii">
          2.50000000e+00 1.00000000e+00 0.00000000e+00 
3.33333325e+00 1.00000000e+00 0.00000000e+00 
4.16666651e+00 1.00000000e+00 0.00000000e+00 
5.00000000e+00 1.00000000e+00 0.00000000e+00 
2.50000000e+00 1.33333337e+00 0.00000000e+00 
3.33333325e+00 1.33333337e+00 0.00000000e+00 
4.16666651e+00 1.33333337e+00 0.00000000e+00 
5.00000000e+00 1.33333337e+00 0.00000000e+00 
2.50000000e+00 1.66666663e+00 0.00000000e+00 
3.33333325e+00 1.66666663e+00 0.00000000e+00 
4.16666651e+00 1.66666663e+00 0.00000000e+00 
5.00000000e+00 1.66666663e+00 0.00000000e+00 
2.50000000e+00 2.00000000e+00 0.00000000e+00 
3.33333325e+00 2.00000000e+00 0.00000000e+00 
4.16666651e+00 2.00000000e+00 0.00000000e+00 
5.00000000e+00 2.00000000e+00 0.00000000e+00 

        </DataArray>
      </Points>
      <Cells>
        <DataArray type="Int32" Name="connectivity" format="ascii">
0 1 5 4
4 5 9 8
8 9 13 12
1 2 6 5
5 6 10 9
9 10 14 13
2 3 7 6
6 7 11 10
10 11 15 14

        </DataArray>
        <DataArray type="Int32" Name="offsets" format="ascii">
4 8 12 16 20 24 28 32 36 
        </DataArray>
        <DataArray type="UInt8" Name="types" format="ascii">
9 9 9 9 9 9 9 9 9 
        </DataArray>
      </Cells>
      <PointData>
        <DataArray type="Float64" Name="u">
          0.00000000e+00 -6.72512487e+00 -1.14994763e+01 -1.83913070e+01 0.00000000e+00 -7.45318785e+00 -1.19723286e+01 -1.80001844e+01 0.00000000e+00 -7.18297365e+00 -1.00554777e+01 -1.35741003e+01 0.00000000e+00 -5.34105462e+00 -5.03338379e+00 -4.39664626e+00 
        </DataArray>
        <DataArray type="Float64" Name="v">
          0.00000000e+00 5.72051854e+00 5.35876114e+00 3.51571182e+00 0.00000000e+00 9.46708601e+00 8.15328168e+00 4.85410988e+00 0.00000000e+00 1.23512522e+01 1.00643224e+01 5.27199613e+00 0.00000000e+00 1.53436481e+01 1.11121595e+01 4.39045098e+00 
        </DataArray>
        <DataArray type="Float64" Name="p">
          -5.78315305e+03 -5.74290947e+03 -5.70266590e+03 -5.66242232e+03 -5.87540938e+03 -5.82010774e+03 -5.76480609e+03 -5.70950445e+03 -5.96766572e+03 -5.89730600e+03 -5.82694629e+03 -5.75658658e+03 -6.05992205e+03 -5.97450427e+03 -5.88908649e+03 -5.80366871e+03 
        </DataArray>
      </PointData>
    </Piece>
    <Piece NumberOfPoints="16" NumberOfCells="9">
      <Points>
        <DataArray type="Float64" NumberOfComponents="3" format="ascii">
          2.50000000e+00 2.00000000e+00 0.00000000e+00 
3.33333325e+00 2.00000000e+00 0.00000000e+00 
4.16666651e+00 2.00000000e+00 0.00000000e+00 
5.00000000e+00 2.00000000e+00 0.00000000e+00 
2.50000000e+00 2.33333325e+00 0.00000000e+00 
3.33333325e+00 2.33333325e+00 0.00000000e+00 
4.16666651e+00 2.33333325e+00 0.00000000e+00 
5.00000000e+00 2.33333325e+00 0.00000000e+00 
2.50000000e+00 2.66666675e+00 0.00000000e+00 
3.33333325e+00 2.66666675e+00 0.00000000e+00 
4.16666651e+00 2.66666675e+00 0.00000000e+00 
5.00000000e+00 2.66666675e+00 0.00000000e+00 
2.50000000e+00 3.00000000e+00 0.00000000e+00 
3.33333325e+00 3.00000000e+00 0.00000000e+00 
4.16666651e+00 3.00000000e+00 0.00000000e+00 
5.00000000e+00 3.00000000e+00 0.00000000e+00 

        </DataArray>
      </Points>
      <Cells>
        <DataArray type="Int32" Name="connectivity" format="ascii">
0 1 5 4
4 5 9 8
8 9 13 12
1 2 6 5
5 6 10 9
9 10 14 13
2 3 7 6
6 7 11 10
10 11 15 14

        </DataArray>
        <DataArray type="Int32" Name="offsets" format="ascii">
4 8 12 16 20 24 28 32 36 
        </DataArray>
        <DataArray type="UInt8" Name="types" format="ascii">
9 9 9 9 9 9 9 9 9 
        </DataArray>
      </Cells>
      <PointData>
        <DataArray type="Float64" Name="u">
          0.00000000e+00 -5.34105462e+00 -5.03338379e+00 -4.39664626e+00 0.00000000e+00 -6.87309610e-01 3.77760516e+00 1.18877192e+01 0.00000000e+00 1.23601667e+01 2.07074305e+01 3.54888750e+01 0.00000000e+00 4.64715263e+01 5.20001990e+01 6.90884769e+01 
        </DataArray>
        <DataArray type="Float64" Name="v">
          0.00000000e+00 1.53436481e+01 1.11121595e+01 4.39045098e+00 0.00000000e+00 1.68043352e+01 9.12949326e+00 1.20433518e+00 0.00000000e+00 1.33387745e+01 6.19357446e+00 -1.41780758e+00 0.00000000e+00 2.12395589e+00 -6.72115522e-01 -3.32629259e+00 
        </DataArray>
        <DataArray type="Float64" Name="p">
          -6.02263182e+03 -5.98521150e+03 -5.94779118e+03 -5.91037086e+03 -6.35538987e+03 -6.14996602e+03 -5.94454218e+03 -5.73911833e+03 -6.68814792e+03 -6.31472055e+03 -5.94129318e+03 -5.56786580e+03 -7.02090597e+03 -6.47947507e+03 -5.93804417e+03 -5.39661327e+03 
        </DataArray>
      </PointData>
    </Piece>
    <Piece NumberOfPoints="16" NumberOfCells="9">
      <Points>
        <DataArray type="Float64" NumberOfComponents="3" format="ascii">
          2.50000000e+00 3.00000000e+00 0.00000000e+00 
3.33333325e+00 3.00000000e+00 0.00000000e+00 
4.16666651e+00 3.00000000e+00 0.00000000e+00 
5.00000000e+00 3.00000000e+00 0.00000000e+00 
2.50000000e+00 3.33333325e+00 0.00000000e+00 
3.33333325e+00 3.33333325e+00 0.00000000e+00 
4.16666651e+00 3.33333325e+00 0.00000000e+00 
5.00000000e+00 3.33333325e+00 0.00000000e+00 
2.50000000e+00 3.66666675e+00 0.00000000e+00 
3.33333325e+00 3.66666675e+00 0.00000000e+00 
4.16666651e+00 3.66666675e+00 0.00000000e+00 
5.00000000e+00 3.66666675e+00 0.00000000e+00 
2.50000000e+00 4.00000000e+00 0.00000000e+00 
3.33333325e+00 4.00000000e+00 0.00000000e+00 
4.16666651e+00 4.00000000e+00 0.00000000e+00 
5.00000000e+00 4.00000000e+00 0.00000000e+00 

        </DataArray>
      </Points>
      <Cells>
        <DataArray type="Int32" Name="connectivity" format="ascii">
0 1 5 4
4 5 9 8
8 9 13 12
1 2 6 5
5 6 10 9
9 10 14 13
2 3 7 6
6 7 11 10
10 11 15 14

        </DataArray>
        <DataArray type="Int32" Name="offsets" format="ascii">
4 8 12 16 20 24 28 32 36 
        </DataArray>
        <DataArray type="UInt8" Name="types" format="ascii">
9 9 9 9 9 9 9 9 9 
        </DataArray>
      </Cells>
      <PointData>
        <DataArray type="Float64" Name="u">
          0.00000000e+00 4.64715263e+01 5.20001990e+01 6.90884769e+01 9.10501945e+01 9.59923460e+01 1.00535232e+02 1.06133825e+02 1.55820847e+02 1.51277581e+02 1.51131514e+02 1.48408832e+02 1.98773372e+02 1.91683415e+02 1.90333993e+02 1.82637657e+02 
        </DataArray>
        <DataArray type="Float64" Name="v">
          0.00000000e+00 2.12395589e+00 -6.72115522e-01 -3.32629259e+00 -1.67596695e+00 -6.57459486e+00 -5.02516975e+00 -2.35673716e+00 -8.50714165e-01 -6.86872936e+00 -6.67042901e+00 -2.95634739e+00 -8.17098937e-01 -4.48499800e+00 -4.21503969e+00 -2.44060245e+00 
        </DataArray>
        <DataArray type="Float64" Name="p">
          -7.08672288e+03 -6.45157814e+03 -5.81643339e+03 -5.18128865e+03 -6.59371104e+03 -6.21507439e+03 -5.83643774e+03 -5.45780108e+03 -6.10069921e+03 -5.97857064e+03 -5.85644208e+03 -5.73431351e+03 -5.60768737e+03 -5.74206690e+03 -5.87644642e+03 -6.01082595e+03 
        </DataArray>
      </PointData>
    </Piece>
    <Piece NumberOfPoints="16" NumberOfCells="9">
      <Points>
        <DataArray type="Float64" NumberOfComponents="3" format="ascii">
          2.50000000e+00 4.00000000e+00 0.00000000e+00 
3.33333325e+00 4.00000000e+00 0.00000000e+00 
4.16666651e+00 4.00000000e+00 0.00000000e+00 
5.00000000e+00 4.00000000e+00 0.00000000e+00 
2.50000000e+00 4.33333349e+00 0.00000000e+00 
3.33333325e+00 4.33333349e+00 0.00000000e+00 
4.16666651e+00 4.33333349e+00 0.00000000e+00 
5.00000000e+00 4.33333349e+00 0.00000000e+00 
2.50000000e+00 4.66666651e+00 0.00000000e+00 
3.33333325e+00 4.66666651e+00 0.00000000e+00 
4.16666651e+00 4.66666651e+00 0.00000000e+00 
5.00000000e+00 4.66666651e+00 0.00000000e+00 
2.50000000e+00 5.00000000e+00 0.00000000e+00 
3.33333325e+00 5.00000000e+00 0.00000000e+00 
4.16666651e+00 5.00000000e+00 0.00000000e+00 
5.00000000e+00 5.00000000e+00 0.00000000e+00 

        </DataArray>
      </Points>
      <Cells>
        <DataArray type="Int32" Name="connectivity" format="ascii">
0 1 5 4
4 5 9 8
8 9 13 12
1 2 6 5
5 6 10 9
9 10 14 13
2 3 7 6
6 7 11 10
10 11 15 14

        </DataArray>
        <DataArray type="Int32" Name="offsets" format="ascii">
4 8 12 16 20 24 28 32 36 
        </DataArray>
        <DataArray type="UInt8" Name="types" format="ascii">
9 9 9 9 9 9 9 9 9 
        </DataArray>
      </Cells>
      <PointData>
        <DataArray type="Float64" Name="u">
          1.98773372e+02 1.91683415e+02 1.90333993e+02 1.82637657e+02 2.20613378e+02 2.12590179e+02 2.10131116e+02 2.01527107e+02 2.20613378e+02 2.12590179e+02 2.10131116e+02 2.01527106e+02 1.98773372e+02 1.91683415e+02 1.90333992e+02 1.82637656e+02 
        </DataArray>
        <DataArray type="Float64" Name="v">
          -8.17098937e-01 -4.48499800e+00 -4.21503969e+00 -2.44060245e+00 3.79460783e-02 -5.36832562e-01 -1.24868373e+00 -1.16301489e+00 -3.79464413e-02 5.36832010e-01 1.24868297e+00 1.16301389e+00 8.17098609e-01 4.48499749e+00 4.21503898e+00 2.44060153e+00 
        </DataArray>
        <DataArray type="Float64" Name="p">
          -5.44178944e+03 -5.66369614e+03 -5.88560285e+03 -6.10750955e+03 -5.44178943e+03 -5.66369613e+03 -5.88560284e+03 -6.10750954e+03 -5.44178943e+03 -5.66369612e+03 -5.88560282e+03 -6.10750952e+03 -5.44178942e+03 -5.66369612e+03 -5.88560281e+03 -6.10750951e+03 
        </DataArray>
      </PointData>
    </Piece>
    <Piece NumberOfPoints="16" NumberOfCells="9">
      <Points>
        <DataArray type="Float64" NumberOfComponents="3" format="ascii">
          2.50000000e+00 5.00000000e+00 0.00000000e+00 
3.33333325e+00 5.00000000e+00 0.00000000e+00 
4.16666651e+00 5.00000000e+00 0.00000000e+00 
5.00000000e+00 5.00000000e+00 0.00000000e+00 
2.50000000e+00 5.33333349e+00 0.00000000e+00 
3.33333325e+00 5.33333349e+00 0.00000000e+00 
4.16666651e+00 5.33333349e+00 0.00000000e+00 
5.00000000e+00 5.33333349e+00 0.00000000e+00 
2.50000000e+00 5.66666651e+00 0.00000000e+00 
3.33333325e+00 5.66666651e+00 0.00000000e+00 
4.16666651e+00 5.66666651e+00 0.00000000e+00 
5.00000000e+00 5.66666651e+00 0.00000000e+00 
2.50000000e+00 6.00000000e+00 0.00000000e+00 
3.33333325e+00 6.00000000e+00 0.00000000e+00 
4.16666651e+00 6.00000000e+00 0.00000000e+00 
5.00000000e+00 6.00000000e+00 0.00000000e+00 

        </DataArray>
      </Points>
      <Cells>
        <DataArray type="Int32" Name="connectivity" format="ascii">
0 1 5 4
4 5 9 8
8 9 13 12
1 2 6 5
5 6 10 9
9 10 14 13
2 3 7 6
6 7 11 10
10 11 15 14

        </DataArray>
        <DataArray type="Int32" Name="offsets" format="ascii">
4 8 12 16 20 24 28 32 36 
        </DataArray>
        <DataArray type="UInt8" Name="types" format="ascii">
9 9 9 9 9 9 9 9 9 
        </DataArray>
      </Cells>
      <PointData>
        <DataArray type="Float64" Name="u">
          1.98773372e+02 1.91683415e+02 1.90333992e+02 1.82637656e+02 1.55820847e+02 1.51277580e+02 1.51131513e+02 1.48408830e+02 9.10501940e+01 9.59923453e+01 1.00535231e+02 1.06133824e+02 0.00000000e+00 4.64715259e+01 5.20001982e+01 6.90884757e+01 
        </DataArray>
        <DataArray type="Float64" Name="v">
          8.17098609e-01 4.48499749e+00 4.21503898e+00 2.44060153e+00 8.50713960e-01 6.86872896e+00 6.67042844e+00 2.95634666e+00 1.67596679e+00 6.57459448e+00 5.02516921e+00 2.35673653e+00 0.00000000e+00 -2.12395613e+00 6.72115176e-01 3.32629214e+00 
        </DataArray>
        <DataArray type="Float64" Name="p">
          -5.60768734e+03 -5.74206686e+03 -5.87644638e+03 -6.01082590e+03 -6.10069917e+03 -5.97857060e+03 -5.85644204e+03 -5.73431347e+03 -6.59371099e+03 -6.21507434e+03 -5.83643769e+03 -5.45780103e+03 -7.08672281e+03 -6.45157808e+03 -5.81643334e+03 -5.18128860e+03 
        </DataArray>
      </PointData>
    </Piece>
    <Piece NumberOfPoints="16" NumberOfCells="9">
      <Points>
        <DataArray type="Float64" NumberOfComponents="3" format="ascii">
          2.50000000e+00 6.00000000e+00 0.00000000e+00 
3.33333325e+00 6.00000000e+00 0.00000000e+00 
4.16666651e+00 6.00000000e+00 0.00000000e+00 
5.00000000e+00 6.00000000e+00 0.00000000e+00 
2.50000000e+00 6.33333349e+00 0.00000000e+00 
3.33333325e+00 6.33333349e+00 0.00000000e+00 
4.16666651e+00 6.33333349e+00 0.00000000e+00 
5.00000000e+00 6.33333349e+00 0.00000000e+00 
2.50000000e+00 6.66666651e+00 0.00000000e+00 
3.33333325e+00 6.66666651e+00 0.00000000e+00 
4.16666651e+00 6.66666651e+00 0.00000000e+00 
5.00000000e+00 6.66666651e+00 0.00000000e+00 
2.50000000e+00 7.00000000e+00 0.00000000e+00 
3.33333325e+00 7.00000000e+00 0.00000000e+00 
4.16666651e+00 7.00000000e+00 0.00000000e+00 
5.00000000e+00 7.00000000e+00 0.00000000e+00 

        </DataArray>
      </Points>
      <Cells>
        <DataArray type="Int32" Name="connectivity" format="ascii">
0 1 5 4
4 5 9 8
8 9 13 12
1 2 6 5
5 6 10 9
9 10 14 13
2 3 7 6
6 7 11 10
10 11 15 14

        </DataArray>
        <DataArray type="Int32" Name="offsets" format="ascii">
4 8 12 16 20 24 28 32 36 
        </DataArray>
        <DataArray type="UInt8" Name="types" format="ascii">
9 9 9 9 9 9 9 9 9 
        </DataArray>
      </Cells>
      <PointData>
        <DataArray type="Float64" Name="u">
          0.00000000e+00 4.64715259e+01 5.20001982e+01 6.90884757e+01 0.00000000e+00 1.23601665e+01 2.07074300e+01 3.54888741e+01 0.00000000e+00 -6.87309692e-01 3.77760488e+00 1.18877186e+01 0.00000000e+00 -5.34105464e+00 -5.03338393e+00 -4.39664658e+00 
        </DataArray>
        <DataArray type="Float64" Name="v">
          0.00000000e+00 -2.12395613e+00 6.72115176e-01 3.32629214e+00 0.00000000e+00 -1.33387746e+01 -6.19357464e+00 1.41780726e+00 0.00000000e+00 -1.68043352e+01 -9.12949333e+00 -1.20433540e+00 0.00000000e+00 -1.53436480e+01 -1.11121595e+01 -4.39045108e+00 
        </DataArray>
        <DataArray type="Float64" Name="p">
          -7.02090591e+03 -6.47947502e+03 -5.93804412e+03 -5.39661322e+03 -6.68814786e+03 -6.31472049e+03 -5.94129312e+03 -5.56786575e+03 -6.35538981e+03 -6.14996597e+03 -5.94454212e+03 -5.73911828e+03 -6.02263176e+03 -5.98521144e+03 -5.94779112e+03 -5.91037081e+03 
        </DataArray>
      </PointData>
    </Piece>
    <Piece NumberOfPoints="16" NumberOfCells="9">
      <Points>
        <DataArray type="Float64" NumberOfComponents="3" format="ascii">
          2.50000000e+00 7.00000000e+00 0.00000000e+00 
3.33333325e+00 7.00000000e+00 0.00000000e+00 
4.16666651e+00 7.00000000e+00 0.00000000e+00 
5.00000000e+00 7.00000000e+00 0.00000000e+00 
2.50000000e+00 7.33333349e+00 0.00000000e+00 
3.33333325e+00 7.33333349e+00 0.00000000e+00 
4.16666651e+00 7.33333349e+00 0.00000000e+00 
5.00000000e+00 7.33333349e+00 0.00000000e+00 
2.50000000e+00 7.66666651e+00 0.00000000e+00 
3.33333325e+00 7.66666651e+00 0.00000000e+00 
4.16666651e+00 7.66666651e+00 0.00000000e+00 
5.00000000e+00 7.66666651e+00 0.00000000e+00 
2.50000000e+00 8.00000000e+00 0.00000000e+00 
3.33333325e+00 8.00000000e+00 0.00000000e+00 
4.16666651e+00 8.00000000e+00 0.00000000e+00 
5.00000000e+00 8.00000000e+00 0.00000000e+00 

        </DataArray>
      </Points>
      <Cells>
        <DataArray type="Int32" Name="connectivity" format="ascii">
0 1 5 4
4 5 9 8
8 9 13 12
1 2 6 5
5 6 10 9
9 10 14 13
2 3 7 6
6 7 11 10
10 11 15 14

        </DataArray>
        <DataArray type="Int32" Name="offsets" format="ascii">
4 8 12 16 20 24 28 32 36 
        </DataArray>
        <DataArray type="UInt8" Name="types" format="ascii">
9 9 9 9 9 9 9 9 9 
        </DataArray>
      </Cells>
      <PointData>
        <DataArray type="Float64" Name="u">
          0.00000000e+00 -5.34105464e+00 -5.03338393e+00 -4.39664658e+00 0.00000000e+00 -7.18297364e+00 -1.00554777e+01 -1.35741004e+01 0.00000000e+00 -7.45318781e+00 -1.19723286e+01 -1.80001844e+01 0.00000000e+00 -6.72512482e+00 -1.14994762e+01 -1.83913068e+01 
        </DataArray>
        <DataArray type="Float64" Name="v">
          0.00000000e+00 -1.53436480e+01 -1.11121595e+01 -4.39045108e+00 0.00000000e+00 -1.23512521e+01 -1.00643223e+01 -5.27199614e+00 0.00000000e+00 -9.46708594e+00 -8.15328161e+00 -4.85410986e+00 0.00000000e+00 -5.72051849e+00 -5.35876109e+00 -3.51571179e+00 
        </DataArray>
        <DataArray type="Float64" Name="p">
          -6.05992200e+03 -5.97450422e+03 -5.88908643e+03 -5.80366865e+03 -5.96766566e+03 -5.89730595e+03 -5.82694624e+03 -5.75658652e+03 -5.87540933e+03 -5.82010768e+03 -5.76480604e+03 -5.70950440e+03 -5.78315299e+03 -5.74290942e+03 -5.70266584e+03 -5.66242227e+03 
        </DataArray>
      </PointData>
    </Piece>
    <Piece NumberOfPoints="16" NumberOfCells="9">
      <Points>
        <DataArray type="Float64" NumberOfComponents="3" format="ascii">
          2.50000000e+00 8.00000000e+00 0.00000000e+00 
3.33333325e+00 8.00000000e+00 0.00000000e+00 
4.16666651e+00 8.00000000e+00 0.00000000e+00 
5.00000000e+00 8.00000000e+00 0.00000000e+00 
2.50000000e+00 8.33333302e+00 0.00000000e+00 
3.33333325e+00 8.33333302e+00 0.00000000e+00 
4.16666651e+00 8.33333302e+00 0.00000000e+00 
5.00000000e+00 8.33333302e+00 0.00000000e+00 
2.50000000e+00 8.66666698e+00 0.00000000e+00 
3.33333325e+00 8.66666698e+00 0.00000000e+00 
4.16666651e+00 8.66666698e+00 0.00000000e+00 
5.00000000e+00 8.66666698e+00 0.00000000e+00 
2.50000000e+00 9.00000000e+00 0.00000000e+00 
3.33333325e+00 9.00000000e+00 0.00000000e+00 
4.16666651e+00 9.00000000e+00 0.00000000e+00 
5.00000000e+00 9.00000000e+00 0.00000000e+00 

        </DataArray>
      </Points>
      <Cells>
        <DataArray type="Int32" Name="connectivity" format="ascii">
0 1 5 4
4 5 9 8
8 9 13 12
1 2 6 5
5 6 10 9
9 10 14 13
2 3 7 6
6 7 11 10
10 11 15 14

        </DataArray>
        <DataArray type="Int32" Name="offsets" format="ascii">
4 8 12 16 20 24 28 32 36 
        </DataArray>
        <DataArray type="UInt8" Name="types" format="ascii">
9 9 9 9 9 9 9 9 9 
        </DataArray>
      </Cells>
      <PointData>
        <DataArray type="Float64" Name="u">
          0.00000000e+00 -6.72512482e+00 -1.14994762e+01 -1.83913068e+01 0.00000000e+00 -5.24165027e+00 -9.08135814e+00 -1.53674993e+01 0.00000000e+00 -3.00937978e+00 -5.07956432e+00 -9.13002382e+00 0.00000000e+00 0.00000000e+00 0.00000000e+00 0.00000000e+00 
        </DataArray>
        <DataArray type="Float64" Name="v">
          0.00000000e+00 -5.72051849e+00 -5.35876109e+00 -3.51571179e+00 0.00000000e+00 -2.61314119e+00 -2.61269196e+00 -1.74493499e+00 0.00000000e+00 -8.83488704e-01 -9.48141068e-01 -6.55205827e-01 0.00000000e+00 0.00000000e+00 0.00000000e+00 0.00000000e+00 
        </DataArray>
        <DataArray type="Float64" Name="p">
          -5.79867832e+03 -5.74917143e+03 -5.69966453e+03 -5.65015764e+03 -5.81197055e+03 -5.76258634e+03 -5.71320212e+03 -5.66381790e+03 -5.82526278e+03 -5.77600124e+03 -5.72673971e+03 -5.67747817e+03 -5.83855501e+03 -5.78941615e+03 -5.74027729e+03 -5.69113844e+03 
        </DataArray>
      </PointData>
    </Piece>
    <Piece NumberOfPoints="16" NumberOfCells="9">
      <Points>
        <DataArray type="Float64" NumberOfComponents="3" format="ascii">
          5.00000000e+00 0.00000000e+00 0.00000000e+00 
5.83333349e+00 0.00000000e+00 0.00000000e+00 
6.66666651e+00 0.00000000e+00 0.00000000e+00 
7.50000000e+00 0.00000000e+00 0.00000000e+00 
5.00000000e+00 3.33333343e-01 0.00000000e+00 
5.83333349e+00 3.33333343e-01 0.00000000e+00 
6.66666651e+00 3.33333343e-01 0.00000000e+00 
7.50000000e+00 3.33333343e-01 0.00000000e+00 
5.00000000e+00 6.66666687e-01 0.00000000e+00 
5.83333349e+00 6.66666687e-01 0.00000000e+00 
6.66666651e+00 6.66666687e-01 0.00000000e+00 
7.50000000e+00 6.66666687e-01 0.00000000e+00 
5.00000000e+00 1.00000000e+00 0.00000000e+00 
5.83333349e+00 1.00000000e+00 0.00000000e+00 
6.66666651e+00 1.00000000e+00 0.00000000e+00 
7.50000000e+00 1.00000000e+00 0.00000000e+00 

        </DataArray>
      </Points>
      <Cells>
        <DataArray type="Int32" Name="connectivity" format="ascii">
0 1 5 4
4 5 9 8
8 9 13 12
1 2 6 5
5 6 10 9
9 10 14 13
2 3 7 6
6 7 11 10
10 11 15 14

        </DataArray>
        <DataArray type="Int32" Name="offsets" format="ascii">
4 8 12 16 20 24 28 32 36 
        </DataArray>
        <DataArray type="UInt8" Name="types" format="ascii">
9 9 9 9 9 9 9 9 9 
        </DataArray>
      </Cells>
      <PointData>
        <DataArray type="Float64" Name="u">