<?xml version="1.0"?>
<VTKFile type="UnstructuredGrid" version="0.1" byte_order="LittleEndian">
  <UnstructuredGrid>
    <Piece NumberOfPoints="16" NumberOfCells="9">
      <Points>
        <DataArray type="Float64" NumberOfComponents="3" format="ascii">
          0.00000000e+00 3.00000000e+00 0.00000000e+00 
8.33333313e-01 3.00000000e+00 0.00000000e+00 
1.66666663e+00 3.00000000e+00 0.00000000e+00 
2.50000000e+00 3.00000000e+00 0.00000000e+00 
0.00000000e+00 3.33333325e+00 0.00000000e+00 
8.33333313e-01 3.33333325e+00 0.00000000e+00 
1.66666663e+00 3.33333325e+00 0.00000000e+00 
2.50000000e+00 3.33333325e+00 0.00000000e+00 
0.00000000e+00 3.66666675e+00 0.00000000e+00 
8.33333313e-01 3.66666675e+00 0.00000000e+00 
1.66666663e+00 3.66666675e+00 0.00000000e+00 
2.50000000e+00 3.66666675e+00 0.00000000e+00 
0.00000000e+00 4.00000000e+00 0.00000000e+00 
8.33333313e-01 4.00000000e+00 0.00000000e+00 
1.66666663e+00 4.00000000e+00 0.00000000e+00 
2.50000000e+00 4.00000000e+00 0.00000000e+00 

        </DataArray>
      </Points>
      <Cells>
        <DataArray type="Int32" Name="connectivity" format="ascii">
0 1 5 4
4 5 9 8
8 9 13 12
1 2 6 5
5 6 10 9
9 10 14 13
2 3 7 6
6 7 11 10
10 11 15 14

        </DataArray>
        <DataArray type="Int32" Name="offsets" format="ascii">
4 8 12 16 20 24 28 32 36 
        </DataArray>
        <DataArray type="UInt8" Name="types" format="ascii">
9 9 9 9 9 9 9 9 9 
        </DataArray>
      </Cells>
      <PointData>
        <DataArray type="Float64" Name="u">
          0.00000000e+00 0.00000000e+00 0.00000000e+00 0.00000000e+00 8.88888889e+01 8.79791542e+01 8.82689449e+01 8.55870374e+01 1.55555556e+02 1.53879261e+02 1.54832406e+02 1.51007627e+02 2.00000000e+02 1.97984368e+02 1.99247261e+02 1.95517700e+02 
        </DataArray>
        <DataArray type="Float64" Name="v">
          0.00000000e+00 0.00000000e+00 0.00000000e+00 0.00000000e+00 0.00000000e+00 2.40706866e-01 8.57272732e-01 -4.92579829e-02 0.00000000e+00 2.75191796e-01 9.60522351e-01 1.31152148e+00 0.00000000e+00 8.45412583e-01 1.99548365e+00 2.68996720e+00 
        </DataArray>
        <DataArray type="Float64" Name="p">
          -1.71900729e+03 -3.06548022e+03 -4.41195316e+03 -5.75842609e+03 -1.74461910e+03 -3.08810197e+03 -4.43158484e+03 -5.77506771e+03 -1.77023092e+03 -3.11072372e+03 -4.45121652e+03 -5.79170932e+03 -1.79584274e+03 -3.13334547e+03 -4.47084820e+03 -5.80835093e+03 
        </DataArray>
      </PointData>
    </Piece>
    <Piece NumberOfPoints="16" NumberOfCells="9">
      <Points>
        <DataArray type="Float64" NumberOfComponents="3" format="ascii">
          0.00000000e+00 4.00000000e+00 0.00000000e+00 
8.33333313e-01 4.00000000e+00 0.00000000e+00 
1.66666663e+00 4.00000000e+00 0.00000000e+00 
2.50000000e+00 4.00000000e+00 0.00000000e+00 
0.00000000e+00 4.33333349e+00 0.00000000e+00 
8.33333313e-01 4.33333349e+00 0.00000000e+00 
1.66666663e+00 4.33333349e+00 0.00000000e+00 
2.50000000e+00 4.33333349e+00 0.00000000e+00 
0.00000000e+00 4.66666651e+00 0.00000000e+00 
8.33333313e-01 4.66666651e+00 0.00000000e+00 
1.66666663e+00 4.66666651e+00 0.00000000e+00 
2.50000000e+00 4.66666651e+00 0.00000000e+00 
0.00000000e+00 5.00000000e+00 0.00000000e+00 
8.33333313e-01 5.00000000e+00 0.00000000e+00 
1.66666663e+00 5.00000000e+00 0.00000000e+00 
2.50000000e+00 5.00000000e+00 0.00000000e+00 

        </DataArray>
      </Points>
      <Cells>
        <DataArray type="Int32" Name="connectivity" format="ascii">
0 1 5 4
4 5 9 8
8 9 13 12
1 2 6 5
5 6 10 9
9 10 14 13
2 3 7 6
6 7 11 10
10 11 15 14

        </DataArray>
        <DataArray type="Int32" Name="offsets" format="ascii">
4 8 12 16 20 24 28 32 36 
        </DataArray>
        <DataArray type="UInt8" Name="types" format="ascii">
9 9 9 9 9 9 9 9 9 
        </DataArray>
      </Cells>
      <PointData>
        <DataArray type="Float64" Name="u">
          2.00000000e+02 1.97984368e+02 1.99247261e+02 1.95517700e+02 2.22222222e+02 2.20609396e+02 2.21767127e+02 2.19419614e+02 2.22222222e+02 2.21332598e+02 2.22586836e+02 2.21681258e+02 2.00000000e+02 2.00001381e+02 2.01437661e+02 2.01964298e+02 
        </DataArray>
        <DataArray type="Float64" Name="v">
          0.00000000e+00 8.45412583e-01 1.99548365e+00 2.68996720e+00 0.00000000e+00 1.38333372e+00 2.54327536e+00 3.97263745e+00 0.00000000e+00 1.40576277e+00 2.75408188e+00 3.90531406e+00 0.00000000e+00 1.45830492e+00 2.48850929e+00 4.39169995e+00 
        </DataArray>
        <DataArray type="Float64" Name="p">
          -1.78605952e+03 -3.13913231e+03 -4.49220511e+03 -5.84527790e+03 -1.90559334e+03 -3.25865855e+03 -4.61172376e+03 -5.96478897e+03 -2.02512716e+03 -3.37818479e+03 -4.73124242e+03 -6.08430004e+03 -2.14466099e+03 -3.49771103e+03 -4.85076107e+03 -6.20381111e+03 
        </DataArray>
      </PointData>
    </Piece>
    <Piece NumberOfPoints="16" NumberOfCells="9">
      <Points>
        <DataArray type="Float64" NumberOfComponents="3" format="ascii">
          0.00000000e+00 5.00000000e+00 0.00000000e+00 
8.33333313e-01 5.00000000e+00 0.00000000e+00 
1.66666663e+00 5.00000000e+00 0.00000000e+00 
2.50000000e+00 5.00000000e+00 0.00000000e+00 
0.00000000e+00 5.33333349e+00 0.00000000e+00 
8.33333313e-01 5.33333349e+00 0.00000000e+00 
1.66666663e+00 5.33333349e+00 0.00000000e+00 
2.50000000e+00 5.33333349e+00 0.00000000e+00 
0.00000000e+00 5.66666651e+00 0.00000000e+00 
8.33333313e-01 5.66666651e+00 0.00000000e+00 
1.66666663e+00 5.66666651e+00 0.00000000e+00 
2.50000000e+00 5.66666651e+00 0.00000000e+00 
0.00000000e+00 6.00000000e+00 0.00000000e+00 
8.33333313e-01 6.00000000e+00 0.00000000e+00 
1.66666663e+00 6.00000000e+00 0.00000000e+00 
2.50000000e+00 6.00000000e+00 0.00000000e+00 

        </DataArray>
      </Points>
      <Cells>
        <DataArray type="Int32" Name="connectivity" format="ascii">
0 1 5 4
4 5 9 8
8 9 13 12
1 2 6 5
5 6 10 9
9 10 14 13
2 3 7 6
6 7 11 10
10 11 15 14

        </DataArray>
        <DataArray type="Int32" Name="offsets" format="ascii">
4 8 12 16 20 24 28 32 36 
        </DataArray>
        <DataArray type="UInt8" Name="types" format="ascii">
9 9 9 9 9 9 9 9 9 
        </DataArray>
      </Cells>
      <PointData>
        <DataArray type="Float64" Name="u">
          2.00000000e+02 2.00001381e+02 2.01437661e+02 2.01964298e+02 1.55555556e+02 1.56894076e+02 1.57670860e+02 1.60611016e+02 8.88888889e+01 9.10195009e+01 9.07127261e+01 9.67054478e+01 0.00000000e+00 0.00000000e+00 0.00000000e+00 0.00000000e+00 
        </DataArray>
        <DataArray type="Float64" Name="v">
          0.00000000e+00 1.45830492e+00 2.48850929e+00 4.39169995e+00 0.00000000e+00 7.02453185e-01 1.47283904e+00 3.08634616e+00 0.00000000e+00 7.37857612e-01 9.63004967e-01 3.39972767e+00 0.00000000e+00 0.00000000e+00 0.00000000e+00 0.00000000e+00 
        </DataArray>
        <DataArray type="Float64" Name="p">
          -2.17870506e+03 -3.53136607e+03 -4.88402708e+03 -6.23668808e+03 -2.18460990e+03 -3.56035724e+03 -4.93610459e+03 -6.31185194e+03 -2.19051474e+03 -3.58934842e+03 -4.98818211e+03 -6.38701580e+03 -2.19641957e+03 -3.61833960e+03 -5.04025963e+03 -6.46217965e+03 
        </DataArray>
      </PointData>
    </Piece>
    <Piece NumberOfPoints="16" NumberOfCells="9">
      <Points>
        <DataArray type="Float64" NumberOfComponents="3" format="ascii">
          2.50000000e+00 0.00000000e+00 0.00000000e+00 
3.33333325e+00 0.00000000e+00 0.00000000e+00 
4.16666651e+00 0.00000000e+00 0.00000000e+00 
5.00000000e+00 0.00000000e+00 0.00000000e+00 
2.50000000e+00 3.33333343e-01 0.00000000e+00 
3.33333325e+00 3.33333343e-01 0.00000000e+00 
4.16666651e+00 3.33333343e-01 0.00000000e+00 
5.00000000e+00 3.33333343e-01 0.00000000e+00 
2.50000000e+00 6.66666687e-01 0.00000000e+00 
3.33333325e+00 6.66666687e-01 0.00000000e+00 
4.16666651e+00 6.66666687e-01 0.00000000e+00 
5.00000000e+00 6.66666687e-01 0.00000000e+00 
2.50000000e+00 1.00000000e+00 0.00000000e+00 
3.33333325e+00 1.00000000e+00 0.00000000e+00 
4.16666651e+00 1.00000000e+00 0.00000000e+00 
5.00000000e+00 1.00000000e+00 0.00000000e+00 

        </DataArray>
      </Points>
      <Cells>
        <DataArray type="Int32" Name="connectivity" format="ascii">
0 1 5 4
4 5 9 8
8 9 13 12
1 2 6 5
5 6 10 9
9 10 14 13
2 3 7 6
6 7 11 10
10 11 15 14

        </DataArray>
        <DataArray type="Int32" Name="offsets" format="ascii">
4 8 12 16 20 24 28 32 36 
        </DataArray>
        <DataArray type="UInt8" Name="types" format="ascii">
9 9 9 9 9 9 9 9 9 
        </DataArray>
      </Cells>
      <PointData>
        <DataArray type="Float64" Name="u">
          0.00000000e+00 0.00000000e+00 0.00000000e+00 0.00000000e+00 0.00000000e+00 -2.68849935e+00 -4.59068563e+00 -8.15699949e+00 0.00000000e+00 -4.73473296e+00 -8.29875064e+00 -1.38680533e+01 0.00000000e+00 -6.17047010e+00 -1.07049396e+01 -1.69949956e+01 
        </DataArray>
        <DataArray type="Float64" Name="v">
          0.00000000e+00 0.00000000e+00 0.00000000e+00 0.00000000e+00 0.00000000e+00 7.88168130e-01 8.45655697e-01 5.37957707e-01 0.00000000e+00 2.36689786e+00 2.35160304e+00 1.50358641e+00 0.00000000e+00 5.21494002e+00 4.82615882e+00 3.10476506e+00 
        </DataArray>
        <DataArray type="Float64" Name="p">
          -5.14184321e+03 -5.10128388e+03 -5.06072455e+03 -5.02016522e+03 -5.12911087e+03 -5.08864206e+03 -5.04817326e+03 -5.00770446e+03 -5.11637852e+03 -5.07600025e+03 -5.03562198e+03 -4.99524371e+03 -5.10364617e+03 -5.06335843e+03 -5.02307069e+03 -4.98278295e+03 
        </DataArray>
      </PointData>
    </Piece>
    <Piece NumberOfPoints="16" NumberOfCells="9">
      <Points>
        <DataArray type="Float64" NumberOfComponents="3" format="ascii">
          2.50000000e+00 1.00000000e+00 0.00000000e+00 
3.33333325e+00 1.00000000e+00 0.00000000e+00 
4.16666651e+00 1.00000000e+00 0.00000000e+00 
5.00000000e+00 1.00000000e+00 0.00000000e+00 
2.50000000e+00 1.33333337e+00 0.00000000e+00 
3.33333325e+00 1.33333337e+00 0.00000000e+00 
4.16666651e+00 1.33333337e+00 0.00000000e+00 
5.00000000e+00 1.33333337e+00 0.00000000e+00 
2.50000000e+00 1.66666663e+00 0.00000000e+00 
3.33333325e+00 1.66666663e+00 0.00000000e+00 
4.16666651e+00 1.66666663e+00 0.00000000e+00 
5.00000000e+00 1.66666663e+00 0.00000000e+00 
2.50000000e+00 2.00000000e+00 0.00000000e+00 
3.33333325e+00 2.00000000e+00 0.00000000e+00 
4.16666651e+00 2.00000000e+00 0.00000000e+00 
5.00000000e+00 2.00000000e+00 0.00000000e+00 

        </DataArray>
      </Points>
      <Cells>
        <DataArray type="Int32" Name="connectivity" format="ascii">
0 1 5 4
4 5 9 8
8 9 13 12
1 2 6 5
5 6 10 9
9 10 14 13
2 3 7 6
6 7 11 10
10 11 15 14

        </DataArray>
        <DataArray type="Int32" Name="offsets" format="ascii">
4 8 12 16 20 24 28 32 36 
        </DataArray>
        <DataArray type="UInt8" Name="types" format="ascii">
9 9 9 9 9 9 9 9 9 
        </DataArray>
      </Cells>
      <PointData>
        <DataArray type="Float64" Name="u">
          0.00000000e+00 -6.17047010e+00 -1.07049396e+01 -1.69949956e+01 0.00000000e+00 -6.99332267e+00 -1.15070394e+01 -1.73446599e+01 0.00000000e+00 -6.95411931e+00 -1.02584500e+01 -1.42967619e+01 0.00000000e+00 -5.49505337e+00 -6.24940775e+00 -7.11606576e+00 
        </DataArray>
        <DataArray type="Float64" Name="v">
          0.00000000e+00 5.21494002e+00 4.82615882e+00 3.10476506e+00 0.00000000e+00 8.73893654e+00 7.43909659e+00 4.47615843e+00 0.00000000e+00 1.15400189e+01 9.35536066e+00 5.16359884e+00 0.00000000e+00 1.46120681e+01 1.06899547e+01 4.93612383e+00 
        </DataArray>
        <DataArray type="Float64" Name="p">
          -5.08801982e+03 -5.05596394e+03 -5.02390805e+03 -4.99185217e+03 -5.17390636e+03 -5.12520913e+03 -5.07651190e+03 -5.02781467e+03 -5.25979289e+03 -5.19445431e+03 -5.12911574e+03 -5.06377716e+03 -5.34567942e+03 -5.26369950e+03 -5.18171958e+03 -5.09973966e+03 
        </DataArray>
      </PointData>
    </Piece>
    <Piece NumberOfPoints="16" NumberOfCells="9">
      <Points>
        <DataArray type="Float64" NumberOfComponents="3" format="ascii">
          2.50000000e+00 2.00000000e+00 0.00000000e+00 
3.33333325e+00 2.00000000e+00 0.00000000e+00 
4.16666651e+00 2.00000000e+00 0.00000000e+00 
5.00000000e+00 2.00000000e+00 0.00000000e+00 
2.50000000e+00 2.33333325e+00 0.00000000e+00 
3.33333325e+00 2.33333325e+00 0.00000000e+00 
4.16666651e+00 2.33333325e+00 0.00000000e+00 
5.00000000e+00 2.33333325e+00 0.00000000e+00 
2.50000000e+00 2.66666675e+00 0.00000000e+00 
3.33333325e+00 2.66666675e+00 0.00000000e+00 
4.16666651e+00 2.66666675e+00 0.00000000e+00 
5.00000000e+00 2.66666675e+00 0.00000000e+00 
2.50000000e+00 3.00000000e+00 0.00000000e+00 
3.33333325e+00 3.00000000e+00 0.00000000e+00 
4.16666651e+00 3.00000000e+00 0.00000000e+00 
5.00000000e+00 3.00000000e+00 0.00000000e+00 

        </DataArray>
      </Points>
      <Cells>
        <DataArray type="Int32" Name="connectivity" format="ascii">
0 1 5 4
4 5 9 8
8 9 13 12
1 2 6 5
5 6 10 9
9 10 14 13
2 3 7 6
6 7 11 10
10 11 15 14

        </DataArray>
        <DataArray type="Int32" Name="offsets" format="ascii">
4 8 12 16 20 24 28 32 36 
        </DataArray>
        <DataArray type="UInt8" Name="types" format="ascii">
9 9 9 9 9 9 9 9 9 
        </DataArray>
      </Cells>
      <PointData>
        <DataArray type="Float64" Name="u">
          0.00000000e+00 -5.49505337e+00 -6.24940775e+00 -7.11606576e+00 0.00000000e+00 -1.44608687e+00 1.21746367e+00 6.42359959e+00 0.00000000e+00 1.02526324e+01 1.59630840e+01 2.68494907e+01 0.00000000e+00 4.14871457e+01 4.37782611e+01 5.69599963e+01 
        </DataArray>
        <DataArray type="Float64" Name="v">
          0.00000000e+00 1.46120681e+01 1.06899547e+01 4.93612383e+00 0.00000000e+00 1.64022119e+01 9.53193377e+00 2.88909611e+00 0.00000000e+00 1.38160142e+01 7.66893742e+00 1.34243142e+00 0.00000000e+00 4.32356538e+00 2.45769952e+00 6.33117038e-01 
        </DataArray>
        <DataArray type="Float64" Name="p">
          -5.31458387e+03 -5.27344160e+03 -5.23229932e+03 -5.19115705e+03 -5.62465831e+03 -5.43192594e+03 -5.23919357e+03 -5.04646120e+03 -5.93473276e+03 -5.59041029e+03 -5.24608782e+03 -4.90176535e+03 -6.24480720e+03 -5.74889464e+03 -5.25298207e+03 -4.75706950e+03 
        </DataArray>
      </PointData>
    </Piece>
    <Piece NumberOfPoints="16" NumberOfCells="9">
      <Points>
        <DataArray type="Float64" NumberOfComponents="3" format="ascii">
          2.50000000e+00 3.00000000e+00 0.00000000e+00 
3.33333325e+00 3.00000000e+00 0.00000000e+00 
4.16666651e+00 3.00000000e+00 0.00000000e+00 
5.00000000e+00 3.00000000e+00 0.00000000e+00 
2.50000000e+00 3.33333325e+00 0.00000000e+00 
3.33333325e+00 3.33333325e+00 0.00000000e+00 
4.16666651e+00 3.33333325e+00 0.00000000e+00 
5.00000000e+00 3.33333325e+00 0.00000000e+00 
2.50000000e+00 3.66666675e+00 0.00000000e+00 
3.33333325e+00 3.66666675e+00 0.00000000e+00 
4.16666651e+00 3.66666675e+00 0.00000000e+00 
5.00000000e+00 3.66666675e+00 0.00000000e+00 
2.50000000e+00 4.00000000e+00 0.00000000e+00 
3.33333325e+00 4.00000000e+00 0.00000000e+00 
4.16666651e+00 4.00000000e+00 0.00000000e+00 
5.00000000e+00 4.00000000e+00 0.00000000e+00 

        </DataArray>
      </Points>
      <Cells>
        <DataArray type="Int32" Name="connectivity" format="ascii">
0 1 5 4
4 5 9 8
8 9 13 12
1 2 6 5
5 6 10 9
9 10 14 13
2 3 7 6
6 7 11 10
10 11 15 14

        </DataArray>
        <DataArray type="Int32" Name="offsets" format="ascii">
4 8 12 16 20 24 28 32 36 
        </DataArray>
        <DataArray type="UInt8" Name="types" format="ascii">
9 9 9 9 9 9 9 9 9 
        </DataArray>
      </Cells>
      <PointData>
        <DataArray type="Float64" Name="u">
          0.00000000e+00 4.14871457e+01 4.37782611e+01 5.69599963e+01 8.55870374e+01 8.87323041e+01 8.94379894e+01 9.14179878e+01 1.51007627e+02 1.44281873e+02 1.40495125e+02 1.34085516e+02 1.95517700e+02 1.86980591e+02 1.82724582e+02 1.72147138e+02 
        </DataArray>
        <DataArray type="Float64" Name="v">
          0.00000000e+00 4.32356538e+00 2.45769952e+00 6.33117038e-01 -4.92579829e-02 -2.81158236e+00 6.49015903e-02 3.37491702e+00 1.31152148e+00 -2.85754858e+00 -1.08969249e+00 4.01091469e+00 2.68996720e+00 7.93216104e-01 2.99644558e+00 6.79157815e+00 
        </DataArray>
        <DataArray type="Float64" Name="p">
          -6.28139859e+03 -5.69420948e+03 -5.10702038e+03 -4.51983128e+03 -5.90778628e+03 -5.54343926e+03 -5.17909225e+03 -4.81474524e+03 -5.53417397e+03 -5.39266905e+03 -5.25116412e+03 -5.10965920e+03 -5.16056166e+03 -5.24189883e+03 -5.32323600e+03 -5.40457316e+03 
        </DataArray>
      </PointData>
    </Piece>
    <Piece NumberOfPoints="16" NumberOfCells="9">
      <Points>
        <DataArray type="Float64" NumberOfComponents="3" format="ascii">
          2.50000000e+00 4.00000000e+00 0.00000000e+00 
3.33333325e+00 4.00000000e+00 0.00000000e+00 
4.16666651e+00 4.00000000e+00 0.00000000e+00 
5.00000000e+00 4.00000000e+00 0.00000000e+00 
2.50000000e+00 4.33333349e+00 0.00000000e+00 
3.33333325e+00 4.33333349e+00 0.00000000e+00 
4.16666651e+00 4.33333349e+00 0.00000000e+00 
5.00000000e+00 4.33333349e+00 0.00000000e+00 
2.50000000e+00 4.66666651e+00 0.00000000e+00 
3.33333325e+00 4.66666651e+00 0.00000000e+00 
4.16666651e+00 4.66666651e+00 0.00000000e+00 
5.00000000e+00 4.66666651e+00 0.00000000e+00 
2.50000000e+00 5.00000000e+00 0.00000000e+00 
3.33333325e+00 5.00000000e+00 0.00000000e+00 
4.16666651e+00 5.00000000e+00 0.00000000e+00 
5.00000000e+00 5.00000000e+00 0.00000000e+00 

        </DataArray>
      </Points>
      <Cells>
        <DataArray type="Int32" Name="connectivity" format="ascii">
0 1 5 4
4 5 9 8
8 9 13 12
1 2 6 5
5 6 10 9
9 10 14 13
2 3 7 6
6 7 11 10
10 11 15 14

        </DataArray>
        <DataArray type="Int32" Name="offsets" format="ascii">
4 8 12 16 20 24 28 32 36 
        </DataArray>
        <DataArray type="UInt8" Name="types" format="ascii">
9 9 9 9 9 9 9 9 9 
        </DataArray>
      </Cells>
      <PointData>
        <DataArray type="Float64" Name="u">
          1.95517700e+02 1.86980591e+02 1.82724582e+02 1.72147138e+02 2.19419614e+02 2.10660404e+02 2.07041215e+02 1.96733977e+02 2.21681258e+02 2.13856428e+02 2.12049362e+02 2.03485339e+02 2.01964298e+02 1.95833899e+02 1.97056486e+02 1.90885098e+02 
        </DataArray>
        <DataArray type="Float64" Name="v">
          2.68996720e+00 7.93216104e-01 2.99644558e+00 6.79157815e+00 3.97263745e+00 5.38190099e+00 6.86367188e+00 9.33720659e+00 3.90531406e+00 6.48440361e+00 9.45962119e+00 1.18723001e+01 4.39169995e+00 1.01101681e+01 1.20825840e+01 1.27183469e+01 
        </DataArray>
        <DataArray type="Float64" Name="p">
          -5.02025919e+03 -5.19737732e+03 -5.37449544e+03 -5.55161356e+03 -5.19488757e+03 -5.39832687e+03 -5.60176617e+03 -5.80520547e+03 -5.36951595e+03 -5.59927643e+03 -5.82903691e+03 -6.05879738e+03 -5.54414433e+03 -5.80022599e+03 -6.05630764e+03 -6.31238930e+03 
        </DataArray>
      </PointData>
    </Piece>
    <Piece NumberOfPoints="16" NumberOfCells="9">
      <Points>
        <DataArray type="Float64" NumberOfComponents="3" format="ascii">
          2.50000000e+00 5.00000000e+00 0.00000000e+00 
3.33333325e+00 5.00000000e+00 0.00000000e+00 
4.16666651e+00 5.00000000e+00 0.00000000e+00 
5.00000000e+00 5.00000000e+00 0.00000000e+00 
2.50000000e+00 5.33333349e+00 0.00000000e+00 
3.33333325e+00 5.33333349e+00 0.00000000e+00 
4.16666651e+00 5.33333349e+00 0.00000000e+00 
5.00000000e+00 5.33333349e+00 0.00000000e+00 
2.50000000e+00 5.66666651e+00 0.00000000e+00 
3.33333325e+00 5.66666651e+00 0.00000000e+00 
4.16666651e+00 5.66666651e+00 0.00000000e+00 
5.00000000e+00 5.66666651e+00 0.00000000e+00 
2.50000000e+00 6.00000000e+00 0.00000000e+00 
3.33333325e+00 6.00000000e+00 0.00000000e+00 
4.16666651e+00 6.00000000e+00 0.00000000e+00 
5.00000000e+00 6.00000000e+00 0.00000000e+00 

        </DataArray>
      </Points>
      <Cells>
        <DataArray type="Int32" Name="connectivity" format="ascii">
0 1 5 4
4 5 9 8
8 9 13 12
1 2 6 5
5 6 10 9
9 10 14 13
2 3 7 6
6 7 11 10
10 11 15 14

        </DataArray>
        <DataArray type="Int32" Name="offsets" format="ascii">
4 8 12 16 20 24 28 32 36 
        </DataArray>
        <DataArray type="UInt8" Name="types" format="ascii">
9 9 9 9 9 9 9 9 9 
        </DataArray>
      </Cells>
      <PointData>
        <DataArray type="Float64" Name="u">
          2.01964298e+02 1.95833899e+02 1.97056486e+02 1.90885098e+02 1.60611016e+02 1.58046734e+02 1.61485431e+02 1.61837423e+02 9.67054478e+01 1.03444363e+02 1.12157544e+02 1.21464076e+02 0.00000000e+00 5.17978098e+01 6.11425310e+01 8.25985756e+01 
        </DataArray>
        <DataArray type="Float64" Name="v">
          4.39169995e+00 1.01101681e+01 1.20825840e+01 1.27183469e+01 3.08634616e+00 1.13062070e+01 1.30682867e+01 1.13110291e+01 3.39972767e+00 1.08857014e+01 1.11770526e+01 9.70731844e+00 0.00000000e+00 4.59379512e-01 4.63043803e+00 8.62905777e+00 
        </DataArray>
        <DataArray type="Float64" Name="p">
          -5.73732442e+03 -5.92014257e+03 -6.10296072e+03 -6.28577887e+03 -6.37215418e+03 -6.26807398e+03 -6.16399378e+03 -6.05991359e+03 -7.00698394e+03 -6.61600539e+03 -6.22502685e+03 -5.83404831e+03 -7.64181370e+03 -6.96393681e+03 -6.28605991e+03 -5.60818302e+03 
        </DataArray>
      </PointData>
    </Piece>
    <Piece NumberOfPoints="16" NumberOfCells="9">
      <Points>
        <DataArray type="Float64" NumberOfComponents="3" format="ascii">
          2.50000000e+00 6.00000000e+00 0.00000000e+00 
3.33333325e+00 6.00000000e+00 0.00000000e+00 
4.16666651e+00 6.00000000e+00 0.00000000e+00 
5.00000000e+00 6.00000000e+00 0.00000000e+00 
2.50000000e+00 6.33333349e+00 0.00000000e+00 
3.33333325e+00 6.33333349e+00 0.00000000e+00 
4.16666651e+00 6.33333349e+00 0.00000000e+00 
5.00000000e+00 6.33333349e+00 0.00000000e+00 
2.50000000e+00 6.66666651e+00 0.00000000e+00 
3.33333325e+00 6.66666651e+00 0.00000000e+00 
4.16666651e+00 6.66666651e+00 0.00000000e+00 
5.00000000e+00 6.66666651e+00 0.00000000e+00 
2.50000000e+00 7.00000000e+00 0.00000000e+00 
3.33333325e+00 7.00000000e+00 0.00000000e+00 
4.16666651e+00 7.00000000e+00 0.00000000e+00 
5.00000000e+00 7.00000000e+00 0.00000000e+00 

        </DataArray>
      </Points>
      <Cells>
        <DataArray type="Int32" Name="connectivity" format="ascii">
0 1 5 4
4 5 9 8
8 9 13 12
1 2 6 5
5 6 10 9
9 10 14 13
2 3 7 6
6 7 11 10
10 11 15 14

        </DataArray>
        <DataArray type="Int32" Name="offsets" format="ascii">
4 8 12 16 20 24 28 32 36 
        </DataArray>
        <DataArray type="UInt8" Name="types" format="ascii">
9 9 9 9 9 9 9 9 9 
        </DataArray>
      </Cells>
      <PointData>
        <DataArray type="Float64" Name="u">
          0.00000000e+00 5.17978098e+01 6.11425310e+01 8.25985756e+01 0.00000000e+00 1.46814509e+01 2.61096479e+01 4.55727000e+01 0.00000000e+00 2.24709336e-01 6.80013414e+00 1.86491545e+01 0.00000000e+00 -5.06063244e+00 -3.46537847e+00 -6.98649058e-01 
        </DataArray>
        <DataArray type="Float64" Name="v">
          0.00000000e+00 4.59379512e-01 4.63043803e+00 8.62905777e+00 0.00000000e+00 -1.26496318e+01 -4.16264206e+00 5.25087898e+00 0.00000000e+00 -1.71209494e+01 -8.42381162e+00 1.36597672e+00 0.00000000e+00 -1.60628756e+01 -1.14675364e+01 -3.33644930e+00 
        </DataArray>
        <DataArray type="Float64" Name="p">
          -7.53798264e+03 -6.95191084e+03 -6.36583904e+03 -5.77976724e+03 -7.18299954e+03 -6.78351351e+03 -6.38402749e+03 -5.98454146e+03 -6.82801643e+03 -6.61511618e+03 -6.40221593e+03 -6.18931569e+03 -6.47303333e+03 -6.44671885e+03 -6.42040438e+03 -6.39408991e+03 
        </DataArray>
      </PointData>
    </Piece>
    <Piece NumberOfPoints="16" NumberOfCells="9">
      <Points>
        <DataArray type="Float64" NumberOfComponents="3" format="ascii">
          2.50000000e+00 7.00000000e+00 0.00000000e+00 
3.33333325e+00 7.00000000e+00 0.00000000e+00 
4.16666651e+00 7.00000000e+00 0.00000000e+00 
5.00000000e+00 7.00000000e+00 0.00000000e+00 
2.50000000e+00 7.33333349e+00 0.00000000e+00 
3.33333325e+00 7.33333349e+00 0.00000000e+00 
4.16666651e+00 7.33333349e+00 0.00000000e+00 
5.00000000e+00 7.33333349e+00 0.00000000e+00 
2.50000000e+00 7.66666651e+00 0.00000000e+00 
3.33333325e+00 7.66666651e+00 0.00000000e+00 
4.16666651e+00 7.66666651e+00 0.00000000e+00 
5.00000000e+00 7.66666651e+00 0.00000000e+00 
2.50000000e+00 8.00000000e+00 0.00000000e+00 
3.33333325e+00 8.00000000e+00 0.00000000e+00 
4.16666651e+00 8.00000000e+00 0.00000000e+00 
5.00000000e+00 8.00000000e+00 0.00000000e+00 

        </DataArray>
      </Points>
      <Cells>
        <DataArray type="Int32" Name="connectivity" format="ascii">
0 1 5 4
4 5 9 8
8 9 13 12
1 2 6 5
5 6 10 9
9 10 14 13
2 3 7 6
6 7 11 10
10 11 15 14

        </DataArray>
        <DataArray type="Int32" Name="offsets" format="ascii">
4 8 12 16 20 24 28 32 36 
        </DataArray>
        <DataArray type="UInt8" Name="types" format="ascii">
9 9 9 9 9 9 9 9 9 
        </DataArray>
      </Cells>
      <PointData>
        <DataArray type="Float64" Name="u">
          0.00000000e+00 -5.06063244e+00 -3.46537847e+00 -6.98649058e-01 0.00000000e+00 -7.34481596e+00 -9.64647358e+00 -1.22806226e+01 0.00000000e+00 -7.91321272e+00 -1.23835127e+01 -1.84691124e+01 0.00000000e+00 -7.33361303e+00 -1.23568702e+01 -1.98936413e+01 
        </DataArray>
        <DataArray type="Float64" Name="v">
          0.00000000e+00 -1.60628756e+01 -1.14675364e+01 -3.33644930e+00 0.00000000e+00 -1.32125073e+01 -1.08481402e+01 -5.12451013e+00 0.00000000e+00 -1.02635426e+01 -8.98095112e+00 -5.12716417e+00 0.00000000e+00 -6.29158711e+00 -6.00070922e+00 -3.91419841e+00 
        </DataArray>
        <DataArray type="Float64" Name="p">
          -6.51841541e+03 -6.43571821e+03 -6.35302102e+03 -6.27032382e+03 -6.42202203e+03 -6.35055937e+03 -6.27909672e+03 -6.20763406e+03 -6.32562865e+03 -6.26540054e+03 -6.20517242e+03 -6.14494430e+03 -6.22923528e+03 -6.18024170e+03 -6.13124812e+03 -6.08225454e+03 
        </DataArray>
      </PointData>
    </Piece>
    <Piece NumberOfPoints="16" NumberOfCells="9">
      <Points>
        <DataArray type="Float64" NumberOfComponents="3" format="ascii">
          2.50000000e+00 8.00000000e+00 0.00000000e+00 
3.33333325e+00 8.00000000e+00 0.00000000e+00 
4.16666651e+00 8.00000000e+00 0.00000000e+00 
5.00000000e+00 8.00000000e+00 0.00000000e+00 
2.50000000e+00 8.33333302e+00 0.00000000e+00 
3.33333325e+00 8.33333302e+00 0.00000000e+00 
4.16666651e+00 8.33333302e+00 0.00000000e+00 
5.00000000e+00 8.33333302e+00 0.00000000e+00 
2.50000000e+00 8.66666698e+00 0.00000000e+00 
3.33333325e+00 8.66666698e+00 0.00000000e+00 
4.16666651e+00 8.66666698e+00 0.00000000e+00 
5.00000000e+00 8.66666698e+00 0.00000000e+00 
2.50000000e+00 9.00000000e+00 0.00000000e+00 
3.33333325e+00 9.00000000e+00 0.00000000e+00 
4.16666651e+00 9.00000000e+00 0.00000000e+00 
5.00000000e+00 9.00000000e+00 0.00000000e+00 

        </DataArray>
      </Points>
      <Cells>
        <DataArray type="Int32" Name="connectivity" format="ascii">
0 1 5 4
4 5 9 8
8 9 13 12
1 2 6 5
5 6 10 9
9 10 14 13
2 3 7 6
6 7 11 10
10 11 15 14

        </DataArray>
        <DataArray type="Int32" Name="offsets" format="ascii">
4 8 12 16 20 24 28 32 36 
        </DataArray>
        <DataArray type="UInt8" Name="types" format="ascii">
9 9 9 9 9 9 9 9 9 
        </DataArray>
      </Cells>
      <PointData>
        <DataArray type="Float64" Name="u">
          0.00000000e+00 -7.33361303e+00 -1.23568702e+01 -1.98936413e+01 0.00000000e+00 -5.82142694e+00 -9.96915257e+00 -1.70996510e+01 0.00000000e+00 -3.38411080e+00 -5.64679704e+00 -1.02617081e+01 0.00000000e+00 0.00000000e+00 0.00000000e+00 0.00000000e+00 
        </DataArray>
        <DataArray type="Float64" Name="v">
          0.00000000e+00 -6.29158711e+00 -6.00070922e+00 -3.91419841e+00 0.00000000e+00 -2.89576141e+00 -2.92260846e+00 -1.99462914e+00 0.00000000e+00 -9.95350684e-01 -1.07346454e+00 -7.89853690e-01 0.00000000e+00 0.00000000e+00 0.00000000e+00 0.00000000e+00 
        </DataArray>
        <DataArray type="Float64" Name="p">
          -6.24456916e+03 -6.18455155e+03 -6.12453394e+03 -6.06451632e+03 -6.25845346e+03 -6.19860148e+03 -6.13874950e+03 -6.07889753e+03 -6.27233775e+03 -6.21265141e+03 -6.15296507e+03 -6.09327873e+03 -6.28622205e+03 -6.22670134e+03 -6.16718064e+03 -6.10765993e+03 
        </DataArray>
      </PointData>
    </Piece>
    <Piece NumberOfPoints="16" NumberOfCells="9">
      <Points>
        <DataArray type="Float64" NumberOfComponents="3" format="ascii">
          5.00000000e+00 0.00000000e+00 0.00000000e+00 
5.83333349e+00 0.00000000e+00 0.00000000e+00 
6.66666651e+00 0.00000000e+00 0.00000000e+00 
7.50000000e+00 0.00000000e+00 0.00000000e+00 
5.00000000e+00 3.33333343e-01 0.00000000e+00 
5.83333349e+00 3.33333343e-01 0.00000000e+00 
6.66666651e+00 3.33333343e-01 0.00000000e+00 
7.50000000e+00 3.33333343e-01 0.00000000e+00 
5.00000000e+00 6.66666687e-01 0.00000000e+00 
5.83333349e+00 6.66666687e-01 0.00000000e+00 
6.66666651e+00 6.66666687e-01 0.00000000e+00 
7.50000000e+00 6.66666687e-01 0.00000000e+00 
5.00000000e+00 1.00000000e+00 0.00000000e+00 
5.83333349e+00 1.00000000e+00 0.00000000e+00 
6.66666651e+00 1.00000000e+00 0.00000000e+00 
7.50000000e+00 1.00000000e+00 0.00000000e+00 

        </DataArray>
      </Points>
      <Cells>
        <DataArray type="Int32" Name="connectivity" format="ascii">
0 1 5 4
4 5 9 8
8 9 13 12
1 2 6 5
5 6 10 9
9 10 14 13
2 3 7 6
6 7 11 10
10 11 15 14

        </DataArray>
        <DataArray type="Int32" Name="offsets" format="ascii">
4 8 12 16 20 24 28 32 36 
        </DataArray>
        <DataArray type="UInt8" Name="types" format="ascii">
9 9 9 9 9 9 9 9 9 
        </DataArray>
      </Cells>
      <PointData>
        <DataArray type="Float64" Name="u">