<?xml version="1.0"?>
<VTKFile type="UnstructuredGrid" version="0.1" byte_order="LittleEndian">
  <UnstructuredGrid>
    <Piece NumberOfPoints="16" NumberOfCells="9">
      <Points>
        <DataArray type="Float64" NumberOfComponents="3" format="ascii">
          0.00000000e+00 3.00000000e+00 0.00000000e+00 
8.33333313e-01 3.00000000e+00 0.00000000e+00 
1.66666663e+00 3.00000000e+00 0.00000000e+00 
2.50000000e+00 3.00000000e+00 0.00000000e+00 
0.00000000e+00 3.33333325e+00 0.00000000e+00 
8.33333313e-01 3.33333325e+00 0.00000000e+00 
1.66666663e+00 3.33333325e+00 0.00000000e+00 
2.50000000e+00 3.33333325e+00 0.00000000e+00 
0.00000000e+00 3.66666675e+00 0.00000000e+00 
8.33333313e-01 3.66666675e+00 0.00000000e+00 
1.66666663e+00 3.66666675e+00 0.00000000e+00 
2.50000000e+00 3.66666675e+00 0.00000000e+00 
0.00000000e+00 4.00000000e+00 0.00000000e+00 
8.33333313e-01 4.00000000e+00 0.00000000e+00 
1.66666663e+00 4.00000000e+00 0.00000000e+00 
2.50000000e+00 4.00000000e+00 0.00000000e+00 

        </DataArray>
      </Points>
      <Cells>
        <DataArray type="Int32" Name="connectivity" format="ascii">
0 1 5 4
4 5 9 8
8 9 13 12
1 2 6 5
5 6 10 9
9 10 14 13
2 3 7 6
6 7 11 10
10 11 15 14

        </DataArray>
        <DataArray type="Int32" Name="offsets" format="ascii">
4 8 12 16 20 24 28 32 36 
        </DataArray>
        <DataArray type="UInt8" Name="types" format="ascii">
9 9 9 9 9 9 9 9 9 
        </DataArray>
      </Cells>
      <PointData>
        <DataArray type="Float64" Name="u">
          0.00000000e+00 0.00000000e+00 0.00000000e+00 0.00000000e+00 8.88888889e+01 8.94682371e+01 8.94966915e+01 9.10608807e+01 1.55555556e+02 1.55372244e+02 1.56257997e+02 1.55822016e+02 2.00000000e+02 1.98990720e+02 2.00360386e+02 1.98767362e+02 
        </DataArray>
        <DataArray type="Float64" Name="v">
          0.00000000e+00 0.00000000e+00 0.00000000e+00 0.00000000e+00 0.00000000e+00 -2.43004020e-01 -3.97022571e-02 -1.68443627e+00 0.00000000e+00 -2.12453286e-01 -2.38791634e-01 -8.58206260e-01 0.00000000e+00 -3.01541880e-01 -2.35663108e-01 -8.21472592e-01 
        </DataArray>
        <DataArray type="Float64" Name="p">
          -2.05733590e+03 -3.45326766e+03 -4.84919943e+03 -6.24513120e+03 -2.06736347e+03 -3.45056566e+03 -4.83376784e+03 -6.21697003e+03 -2.07739105e+03 -3.44786365e+03 -4.81833625e+03 -6.18880885e+03 -2.08741863e+03 -3.44516164e+03 -4.80290466e+03 -6.16064768e+03 
        </DataArray>
      </PointData>
    </Piece>
    <Piece NumberOfPoints="16" NumberOfCells="9">
      <Points>
        <DataArray type="Float64" NumberOfComponents="3" format="ascii">
          0.00000000e+00 4.00000000e+00 0.00000000e+00 
8.33333313e-01 4.00000000e+00 0.00000000e+00 
1.66666663e+00 4.00000000e+00 0.00000000e+00 
2.50000000e+00 4.00000000e+00 0.00000000e+00 
0.00000000e+00 4.33333349e+00 0.00000000e+00 
8.33333313e-01 4.33333349e+00 0.00000000e+00 
1.66666663e+00 4.33333349e+00 0.00000000e+00 
2.50000000e+00 4.33333349e+00 0.00000000e+00 
0.00000000e+00 4.66666651e+00 0.00000000e+00 
8.33333313e-01 4.66666651e+00 0.00000000e+00 
1.66666663e+00 4.66666651e+00 0.00000000e+00 
2.50000000e+00 4.66666651e+00 0.00000000e+00 
0.00000000e+00 5.00000000e+00 0.00000000e+00 
8.33333313e-01 5.00000000e+00 0.00000000e+00 
1.66666663e+00 5.00000000e+00 0.00000000e+00 
2.50000000e+00 5.00000000e+00 0.00000000e+00 

        </DataArray>
      </Points>
      <Cells>
        <DataArray type="Int32" Name="connectivity" format="ascii">
0 1 5 4
4 5 9 8
8 9 13 12
1 2 6 5
5 6 10 9
9 10 14 13
2 3 7 6
6 7 11 10
10 11 15 14

        </DataArray>
        <DataArray type="Int32" Name="offsets" format="ascii">
4 8 12 16 20 24 28 32 36 
        </DataArray>
        <DataArray type="UInt8" Name="types" format="ascii">
9 9 9 9 9 9 9 9 9 
        </DataArray>
      </Cells>
      <PointData>
        <DataArray type="Float64" Name="u">
          2.00000000e+02 1.98990720e+02 2.00360386e+02 1.98767362e+02 2.22222222e+02 2.20969019e+02 2.22201741e+02 2.20605529e+02 2.22222222e+02 2.20969019e+02 2.22201741e+02 2.20605529e+02 2.00000000e+02 1.98990720e+02 2.00360386e+02 1.98767362e+02 
        </DataArray>
        <DataArray type="Float64" Name="v">
          0.00000000e+00 -3.01541880e-01 -2.35663108e-01 -8.21472592e-01 0.00000000e+00 -1.30000431e-02 -1.01832616e-01 3.76163619e-02 0.00000000e+00 1.30000417e-02 1.01832614e-01 -3.76163659e-02 0.00000000e+00 3.01541879e-01 2.35663106e-01 8.21472588e-01 
        </DataArray>
        <DataArray type="Float64" Name="p">
          -2.06628052e+03 -3.43129512e+03 -4.79630972e+03 -6.16132432e+03 -2.06628052e+03 -3.43129512e+03 -4.79630972e+03 -6.16132432e+03 -2.06628052e+03 -3.43129512e+03 -4.79630972e+03 -6.16132432e+03 -2.06628052e+03 -3.43129512e+03 -4.79630972e+03 -6.16132432e+03 
        </DataArray>
      </PointData>
    </Piece>
    <Piece NumberOfPoints="16" NumberOfCells="9">
      <Points>
        <DataArray type="Float64" NumberOfComponents="3" format="ascii">
          0.00000000e+00 5.00000000e+00 0.00000000e+00 
8.33333313e-01 5.00000000e+00 0.00000000e+00 
1.66666663e+00 5.00000000e+00 0.00000000e+00 
2.50000000e+00 5.00000000e+00 0.00000000e+00 
0.00000000e+00 5.33333349e+00 0.00000000e+00 
8.33333313e-01 5.33333349e+00 0.00000000e+00 
1.66666663e+00 5.33333349e+00 0.00000000e+00 
2.50000000e+00 5.33333349e+00 0.00000000e+00 
0.00000000e+00 5.66666651e+00 0.00000000e+00 
8.33333313e-01 5.66666651e+00 0.00000000e+00 
1.66666663e+00 5.66666651e+00 0.00000000e+00 
2.50000000e+00 5.66666651e+00 0.00000000e+00 
0.00000000e+00 6.00000000e+00 0.00000000e+00 
8.33333313e-01 6.00000000e+00 0.00000000e+00 
1.66666663e+00 6.00000000e+00 0.00000000e+00 
2.50000000e+00 6.00000000e+00 0.00000000e+00 

        </DataArray>
      </Points>
      <Cells>
        <DataArray type="Int32" Name="connectivity" format="ascii">
0 1 5 4
4 5 9 8
8 9 13 12
1 2 6 5
5 6 10 9
9 10 14 13
2 3 7 6
6 7 11 10
10 11 15 14

        </DataArray>
        <DataArray type="Int32" Name="offsets" format="ascii">
4 8 12 16 20 24 28 32 36 
        </DataArray>
        <DataArray type="UInt8" Name="types" format="ascii">
9 9 9 9 9 9 9 9 9 
        </DataArray>
      </Cells>
      <PointData>
        <DataArray type="Float64" Name="u">
          2.00000000e+02 1.98990720e+02 2.00360386e+02 1.98767362e+02 1.55555556e+02 1.55372244e+02 1.56257997e+02 1.55822016e+02 8.88888889e+01 8.94682371e+01 8.94966915e+01 9.10608807e+01 0.00000000e+00 0.00000000e+00 0.00000000e+00 0.00000000e+00 
        </DataArray>
        <DataArray type="Float64" Name="v">
          0.00000000e+00 3.01541879e-01 2.35663106e-01 8.21472588e-01 0.00000000e+00 2.12453286e-01 2.38791633e-01 8.58206258e-01 0.00000000e+00 2.43004019e-01 3.97022562e-02 1.68443627e+00 0.00000000e+00 0.00000000e+00 0.00000000e+00 0.00000000e+00 
        </DataArray>
        <DataArray type="Float64" Name="p">
          -2.08741863e+03 -3.44516164e+03 -4.80290466e+03 -6.16064768e+03 -2.07739105e+03 -3.44786365e+03 -4.81833625e+03 -6.18880885e+03 -2.06736347e+03 -3.45056566e+03 -4.83376784e+03 -6.21697003e+03 -2.05733590e+03 -3.45326766e+03 -4.84919943e+03 -6.24513120e+03 
        </DataArray>
      </PointData>
    </Piece>
    <Piece NumberOfPoints="16" NumberOfCells="9">
      <Points>
        <DataArray type="Float64" NumberOfComponents="3" format="ascii">
          2.50000000e+00 0.00000000e+00 0.00000000e+00 
3.33333325e+00 0.00000000e+00 0.00000000e+00 
4.16666651e+00 0.00000000e+00 0.00000000e+00 
5.00000000e+00 0.00000000e+00 0.00000000e+00 
2.50000000e+00 3.33333343e-01 0.00000000e+00 
3.33333325e+00 3.33333343e-01 0.00000000e+00 
4.16666651e+00 3.33333343e-01 0.00000000e+00 
5.00000000e+00 3.33333343e-01 0.00000000e+00 
2.50000000e+00 6.66666687e-01 0.00000000e+00 
3.33333325e+00 6.66666687e-01 0.00000000e+00 
4.16666651e+00 6.66666687e-01 0.00000000e+00 
5.00000000e+00 6.66666687e-01 0.00000000e+00 
2.50000000e+00 1.00000000e+00 0.00000000e+00 
3.33333325e+00 1.00000000e+00 0.00000000e+00 
4.16666651e+00 1.00000000e+00 0.00000000e+00 
5.00000000e+00 1.00000000e+00 0.00000000e+00 

        </DataArray>
      </Points>
      <Cells>
        <DataArray type="Int32" Name="connectivity" format="ascii">
0 1 5 4
4 5 9 8
8 9 13 12
1 2 6 5
5 6 10 9
9 10 14 13
2 3 7 6
6 7 11 10
10 11 15 14

        </DataArray>
        <DataArray type="Int32" Name="offsets" format="ascii">
4 8 12 16 20 24 28 32 36 
        </DataArray>
        <DataArray type="UInt8" Name="types" format="ascii">
9 9 9 9 9 9 9 9 9 
        </DataArray>
      </Cells>
      <PointData>
        <DataArray type="Float64" Name="u">
          0.00000000e+00 0.00000000e+00 0.00000000e+00 0.00000000e+00 0.00000000e+00 -3.01745051e+00 -5.08849616e+00 -9.14616030e+00 0.00000000e+00 -5.25354847e+00 -9.09415840e+00 -1.53882217e+01 0.00000000e+00 -6.73787393e+00 -1.15110628e+01 -1.84083345e+01 
        </DataArray>
        <DataArray type="Float64" Name="v">
          0.00000000e+00 0.00000000e+00 0.00000000e+00 0.00000000e+00 0.00000000e+00 8.85519619e-01 9.50111392e-01 6.55129540e-01 0.00000000e+00 2.61835459e+00 2.61699301e+00 1.74444373e+00 0.00000000e+00 5.73079498e+00 5.36594852e+00 3.51436169e+00 
        </DataArray>
        <DataArray type="Float64" Name="p">
          -5.83003093e+03 -5.78039603e+03 -5.73076114e+03 -5.68112624e+03 -5.81666075e+03 -5.76691650e+03 -5.71717225e+03 -5.66742800e+03 -5.80329058e+03 -5.75343697e+03 -5.70358336e+03 -5.65372976e+03 -5.78992041e+03 -5.73995744e+03 -5.68999448e+03 -5.64003151e+03 
        </DataArray>
      </PointData>
    </Piece>
    <Piece NumberOfPoints="16" NumberOfCells="9">
      <Points>
        <DataArray type="Float64" NumberOfComponents="3" format="ascii">
          2.50000000e+00 1.00000000e+00 0.00000000e+00 
3.33333325e+00 1.00000000e+00 0.00000000e+00 
4.16666651e+00 1.00000000e+00 0.00000000e+00 
5.00000000e+00 1.00000000e+00 0.00000000e+00 
2.50000000e+00 1.33333337e+00 0.00000000e+00 
3.33333325e+00 1.33333337e+00 0.00000000e+00 
4.16666651e+00 1.33333337e+00 0.00000000e+00 
5.00000000e+00 1.33333337e+00 0.00000000e+00 
2.50000000e+00 1.66666663e+00 0.00000000e+00 
3.33333325e+00 1.66666663e+00 0.00000000e+00 
4.16666651e+00 1.66666663e+00 0.00000000e+00 
5.00000000e+00 1.66666663e+00 0.00000000e+00 
2.50000000e+00 2.00000000e+00 0.00000000e+00 
3.33333325e+00 2.00000000e+00 0.00000000e+00 
4.16666651e+00 2.00000000e+00 0.00000000e+00 
5.00000000e+00 2.00000000e+00 0.00000000e+00 

        </DataArray>
      </Points>
      <Cells>
        <DataArray type="Int32" Name="connectivity" format="ascii">
0 1 5 4
4 5 9 8
8 9 13 12
1 2 6 5
5 6 10 9
9 10 14 13
2 3 7 6
6 7 11 10
10 11 15 14

        </DataArray>
        <DataArray type="Int32" Name="offsets" format="ascii">
4 8 12 16 20 24 28 32 36 
        </DataArray>
        <DataArray type="UInt8" Name="types" format="ascii">
9 9 9 9 9 9 9 9 9 
        </DataArray>
      </Cells>
      <PointData>
        <DataArray type="Float64" Name="u">
          0.00000000e+00 -6.73787393e+00 -1.15110628e+01 -1.84083345e+01 0.00000000e+00 -7.46466458e+00 -1.19785571e+01 -1.80066710e+01 0.00000000e+00 -7.19066443e+00 -1.00525066e+01 -1.35644317e+01 0.00000000e+00 -5.34119946e+00 -5.01756009e+00 -4.36661108e+00 
        </DataArray>
        <DataArray type="Float64" Name="v">
          0.00000000e+00 5.73079498e+00 5.36594852e+00 3.51436169e+00 0.00000000e+00 9.48171958e+00 8.16126636e+00 4.85000295e+00 0.00000000e+00 1.23679626e+01 1.00714297e+01 5.26377176e+00 0.00000000e+00 1.53601338e+01 1.11145780e+01 4.37575813e+00 
        </DataArray>
        <DataArray type="Float64" Name="p">
          -5.77432725e+03 -5.73368681e+03 -5.69304637e+03 -5.65240592e+03 -5.86711375e+03 -5.81127669e+03 -5.75543962e+03 -5.69960255e+03 -5.95990026e+03 -5.88886657e+03 -5.81783288e+03 -5.74679918e+03 -6.05268676e+03 -5.96645644e+03 -5.88022613e+03 -5.79399582e+03 
        </DataArray>
      </PointData>
    </Piece>
    <Piece NumberOfPoints="16" NumberOfCells="9">
      <Points>
        <DataArray type="Float64" NumberOfComponents="3" format="ascii">
          2.50000000e+00 2.00000000e+00 0.00000000e+00 
3.33333325e+00 2.00000000e+00 0.00000000e+00 
4.16666651e+00 2.00000000e+00 0.00000000e+00 
5.00000000e+00 2.00000000e+00 0.00000000e+00 
2.50000000e+00 2.33333325e+00 0.00000000e+00 
3.33333325e+00 2.33333325e+00 0.00000000e+00 
4.16666651e+00 2.33333325e+00 0.00000000e+00 
5.00000000e+00 2.33333325e+00 0.00000000e+00 
2.50000000e+00 2.66666675e+00 0.00000000e+00 
3.33333325e+00 2.66666675e+00 0.00000000e+00 
4.16666651e+00 2.66666675e+00 0.00000000e+00 
5.00000000e+00 2.66666675e+00 0.00000000e+00 
2.50000000e+00 3.00000000e+00 0.00000000e+00 
3.33333325e+00 3.00000000e+00 0.00000000e+00 
4.16666651e+00 3.00000000e+00 0.00000000e+00 
5.00000000e+00 3.00000000e+00 0.00000000e+00 

        </DataArray>
      </Points>
      <Cells>
        <DataArray type="Int32" Name="connectivity" format="ascii">
0 1 5 4
4 5 9 8
8 9 13 12
1 2 6 5
5 6 10 9
9 10 14 13
2 3 7 6
6 7 11 10
10 11 15 14

        </DataArray>
        <DataArray type="Int32" Name="offsets" format="ascii">
4 8 12 16 20 24 28 32 36 
        </DataArray>
        <DataArray type="UInt8" Name="types" format="ascii">
9 9 9 9 9 9 9 9 9 
        </DataArray>
      </Cells>
      <PointData>
        <DataArray type="Float64" Name="u">
          0.00000000e+00 -5.34119946e+00 -5.01756009e+00 -4.36661108e+00 0.00000000e+00 -6.73968813e-01 3.81056737e+00 1.19382251e+01 0.00000000e+00 1.23947759e+01 2.07594274e+01 3.55542331e+01 0.00000000e+00 4.65165172e+01 5.20518405e+01 6.91519522e+01 
        </DataArray>
        <DataArray type="Float64" Name="v">
          0.00000000e+00 1.53601338e+01 1.11145780e+01 4.37575813e+00 0.00000000e+00 1.68160939e+01 9.12560459e+00 1.18391173e+00 0.00000000e+00 1.33377987e+01 6.17903290e+00 -1.43950612e+00 0.00000000e+00 2.10505053e+00 -6.91712947e-01 -3.34520538e+00 
        </DataArray>
        <DataArray type="Float64" Name="p">
          -6.01524979e+03 -5.97717115e+03 -5.93909251e+03 -5.90101387e+03 -6.34963493e+03 -6.14273888e+03 -5.93584282e+03 -5.72894677e+03 -6.68402008e+03 -6.30830661e+03 -5.93259314e+03 -5.55687967e+03 -7.01840522e+03 -6.47387434e+03 -5.92934345e+03 -5.38481257e+03 
        </DataArray>
      </PointData>
    </Piece>
    <Piece NumberOfPoints="16" NumberOfCells="9">
      <Points>
        <DataArray type="Float64" NumberOfComponents="3" format="ascii">
          2.50000000e+00 3.00000000e+00 0.00000000e+00 
3.33333325e+00 3.00000000e+00 0.00000000e+00 
4.16666651e+00 3.00000000e+00 0.00000000e+00 
5.00000000e+00 3.00000000e+00 0.00000000e+00 
2.50000000e+00 3.33333325e+00 0.00000000e+00 
3.33333325e+00 3.33333325e+00 0.00000000e+00 
4.16666651e+00 3.33333325e+00 0.00000000e+00 
5.00000000e+00 3.33333325e+00 0.00000000e+00 
2.50000000e+00 3.66666675e+00 0.00000000e+00 
3.33333325e+00 3.66666675e+00 0.00000000e+00 
4.16666651e+00 3.66666675e+00 0.00000000e+00 
5.00000000e+00 3.66666675e+00 0.00000000e+00 
2.50000000e+00 4.00000000e+00 0.00000000e+00 
3.33333325e+00 4.00000000e+00 0.00000000e+00 
4.16666651e+00 4.00000000e+00 0.00000000e+00 
5.00000000e+00 4.00000000e+00 0.00000000e+00 

        </DataArray>
      </Points>
      <Cells>
        <DataArray type="Int32" Name="connectivity" format="ascii">
0 1 5 4
4 5 9 8
8 9 13 12
1 2 6 5
5 6 10 9
9 10 14 13
2 3 7 6
6 7 11 10
10 11 15 14

        </DataArray>
        <DataArray type="Int32" Name="offsets" format="ascii">
4 8 12 16 20 24 28 32 36 
        </DataArray>
        <DataArray type="UInt8" Name="types" format="ascii">
9 9 9 9 9 9 9 9 9 
        </DataArray>
      </Cells>
      <PointData>
        <DataArray type="Float64" Name="u">
          0.00000000e+00 4.65165172e+01 5.20518405e+01 6.91519522e+01 9.10608807e+01 9.60086341e+01 1.00557411e+02 1.06160729e+02 1.55822016e+02 1.51264053e+02 1.51113860e+02 1.48381038e+02 1.98767362e+02 1.91654384e+02 1.90292880e+02 1.82567842e+02 
        </DataArray>
        <DataArray type="Float64" Name="v">
          0.00000000e+00 2.10505053e+00 -6.91712947e-01 -3.34520538e+00 -1.68443627e+00 -6.59875292e+00 -5.04930986e+00 -2.37779794e+00 -8.58206260e-01 -6.89504486e+00 -6.69361000e+00 -2.97251163e+00 -8.21472592e-01 -4.50177197e+00 -4.23248237e+00 -2.45257485e+00 
        </DataArray>
        <DataArray type="Float64" Name="p">
          -7.08382633e+03 -6.44570496e+03 -5.80758359e+03 -5.16946223e+03 -6.58892113e+03 -6.20814713e+03 -5.82737313e+03 -5.44659913e+03 -6.09401594e+03 -5.97058931e+03 -5.84716267e+03 -5.72373604e+03 -5.59911075e+03 -5.73303148e+03 -5.86695221e+03 -6.00087295e+03 
        </DataArray>
      </PointData>
    </Piece>
    <Piece NumberOfPoints="16" NumberOfCells="9">
      <Points>
        <DataArray type="Float64" NumberOfComponents="3" format="ascii">
          2.50000000e+00 4.00000000e+00 0.00000000e+00 
3.33333325e+00 4.00000000e+00 0.00000000e+00 
4.16666651e+00 4.00000000e+00 0.00000000e+00 
5.00000000e+00 4.00000000e+00 0.00000000e+00 
2.50000000e+00 4.33333349e+00 0.00000000e+00 
3.33333325e+00 4.33333349e+00 0.00000000e+00 
4.16666651e+00 4.33333349e+00 0.00000000e+00 
5.00000000e+00 4.33333349e+00 0.00000000e+00 
2.50000000e+00 4.66666651e+00 0.00000000e+00 
3.33333325e+00 4.66666651e+00 0.00000000e+00 
4.16666651e+00 4.66666651e+00 0.00000000e+00 
5.00000000e+00 4.66666651e+00 0.00000000e+00 
2.50000000e+00 5.00000000e+00 0.00000000e+00 
3.33333325e+00 5.00000000e+00 0.00000000e+00 
4.16666651e+00 5.00000000e+00 0.00000000e+00 
5.00000000e+00 5.00000000e+00 0.00000000e+00 

        </DataArray>
      </Points>
      <Cells>
        <DataArray type="Int32" Name="connectivity" format="ascii">
0 1 5 4
4 5 9 8
8 9 13 12
1 2 6 5
5 6 10 9
9 10 14 13
2 3 7 6
6 7 11 10
10 11 15 14

        </DataArray>
        <DataArray type="Int32" Name="offsets" format="ascii">
4 8 12 16 20 24 28 32 36 
        </DataArray>
        <DataArray type="UInt8" Name="types" format="ascii">
9 9 9 9 9 9 9 9 9 
        </DataArray>
      </Cells>
      <PointData>
        <DataArray type="Float64" Name="u">
          1.98767362e+02 1.91654384e+02 1.90292880e+02 1.82567842e+02 2.20605529e+02 2.12553057e+02 2.10080278e+02 2.01441360e+02 2.20605529e+02 2.12553057e+02 2.10080278e+02 2.01441360e+02 1.98767362e+02 1.91654384e+02 1.90292880e+02 1.82567842e+02 
        </DataArray>
        <DataArray type="Float64" Name="v">
          -8.21472592e-01 -4.50177197e+00 -4.23248237e+00 -2.45257485e+00 3.76163619e-02 -5.41587457e-01 -1.25519262e+00 -1.16738016e+00 -3.76163659e-02 5.41587451e-01 1.25519261e+00 1.16738015e+00 8.21472588e-01 4.50177197e+00 4.23248237e+00 2.45257484e+00 
        </DataArray>
        <DataArray type="Float64" Name="p">
          -5.43260242e+03 -5.65436475e+03 -5.87612708e+03 -6.09788941e+03 -5.43260242e+03 -5.65436475e+03 -5.87612708e+03 -6.09788941e+03 -5.43260242e+03 -5.65436475e+03 -5.87612708e+03 -6.09788941e+03 -5.43260242e+03 -5.65436475e+03 -5.87612708e+03 -6.09788941e+03 
        </DataArray>
      </PointData>
    </Piece>
    <Piece NumberOfPoints="16" NumberOfCells="9">
      <Points>
        <DataArray type="Float64" NumberOfComponents="3" format="ascii">
          2.50000000e+00 5.00000000e+00 0.00000000e+00 
3.33333325e+00 5.00000000e+00 0.00000000e+00 
4.16666651e+00 5.00000000e+00 0.00000000e+00 
5.00000000e+00 5.00000000e+00 0.00000000e+00 
2.50000000e+00 5.33333349e+00 0.00000000e+00 
3.33333325e+00 5.33333349e+00 0.00000000e+00 
4.16666651e+00 5.33333349e+00 0.00000000e+00 
5.00000000e+00 5.33333349e+00 0.00000000e+00 
2.50000000e+00 5.66666651e+00 0.00000000e+00 
3.33333325e+00 5.66666651e+00 0.00000000e+00 
4.16666651e+00 5.66666651e+00 0.00000000e+00 
5.00000000e+00 5.66666651e+00 0.00000000e+00 
2.50000000e+00 6.00000000e+00 0.00000000e+00 
3.33333325e+00 6.00000000e+00 0.00000000e+00 
4.16666651e+00 6.00000000e+00 0.00000000e+00 
5.00000000e+00 6.00000000e+00 0.00000000e+00 

        </DataArray>
      </Points>
      <Cells>
        <DataArray type="Int32" Name="connectivity" format="ascii">
0 1 5 4
4 5 9 8
8 9 13 12
1 2 6 5
5 6 10 9
9 10 14 13
2 3 7 6
6 7 11 10
10 11 15 14

        </DataArray>
        <DataArray type="Int32" Name="offsets" format="ascii">
4 8 12 16 20 24 28 32 36 
        </DataArray>
        <DataArray type="UInt8" Name="types" format="ascii">
9 9 9 9 9 9 9 9 9 
        </DataArray>
      </Cells>
      <PointData>
        <DataArray type="Float64" Name="u">
          1.98767362e+02 1.91654384e+02 1.90292880e+02 1.82567842e+02 1.55822016e+02 1.51264053e+02 1.51113860e+02 1.48381038e+02 9.10608807e+01 9.60086341e+01 1.00557411e+02 1.06160729e+02 0.00000000e+00 4.65165172e+01 5.20518405e+01 6.91519522e+01 
        </DataArray>
        <DataArray type="Float64" Name="v">
          8.21472588e-01 4.50177197e+00 4.23248237e+00 2.45257484e+00 8.58206258e-01 6.89504486e+00 6.69361000e+00 2.97251162e+00 1.68443627e+00 6.59875292e+00 5.04930985e+00 2.37779793e+00 0.00000000e+00 -2.10505053e+00 6.91712943e-01 3.34520538e+00 
        </DataArray>
        <DataArray type="Float64" Name="p">
          -5.59911075e+03 -5.73303148e+03 -5.86695221e+03 -6.00087295e+03 -6.09401594e+03 -5.97058931e+03 -5.84716267e+03 -5.72373604e+03 -6.58892113e+03 -6.20814713e+03 -5.82737313e+03 -5.44659913e+03 -7.08382633e+03 -6.44570496e+03 -5.80758359e+03 -5.16946223e+03 
        </DataArray>
      </PointData>
    </Piece>
    <Piece NumberOfPoints="16" NumberOfCells="9">
      <Points>
        <DataArray type="Float64" NumberOfComponents="3" format="ascii">
          2.50000000e+00 6.00000000e+00 0.00000000e+00 
3.33333325e+00 6.00000000e+00 0.00000000e+00 
4.16666651e+00 6.00000000e+00 0.00000000e+00 
5.00000000e+00 6.00000000e+00 0.00000000e+00 
2.50000000e+00 6.33333349e+00 0.00000000e+00 
3.33333325e+00 6.33333349e+00 0.00000000e+00 
4.16666651e+00 6.33333349e+00 0.00000000e+00 
5.00000000e+00 6.33333349e+00 0.00000000e+00 
2.50000000e+00 6.66666651e+00 0.00000000e+00 
3.33333325e+00 6.66666651e+00 0.00000000e+00 
4.16666651e+00 6.66666651e+00 0.00000000e+00 
5.00000000e+00 6.66666651e+00 0.00000000e+00 
2.50000000e+00 7.00000000e+00 0.00000000e+00 
3.33333325e+00 7.00000000e+00 0.00000000e+00 
4.16666651e+00 7.00000000e+00 0.00000000e+00 
5.00000000e+00 7.00000000e+00 0.00000000e+00 

        </DataArray>
      </Points>
      <Cells>
        <DataArray type="Int32" Name="connectivity" format="ascii">
0 1 5 4
4 5 9 8
8 9 13 12
1 2 6 5
5 6 10 9
9 10 14 13
2 3 7 6
6 7 11 10
10 11 15 14

        </DataArray>
        <DataArray type="Int32" Name="offsets" format="ascii">
4 8 12 16 20 24 28 32 36 
        </DataArray>
        <DataArray type="UInt8" Name="types" format="ascii">
9 9 9 9 9 9 9 9 9 
        </DataArray>
      </Cells>
      <PointData>
        <DataArray type="Float64" Name="u">
          0.00000000e+00 4.65165172e+01 5.20518405e+01 6.91519522e+01 0.00000000e+00 1.23947759e+01 2.07594274e+01 3.55542331e+01 0.00000000e+00 -6.73968814e-01 3.81056736e+00 1.19382251e+01 0.00000000e+00 -5.34119946e+00 -5.01756009e+00 -4.36661109e+00 
        </DataArray>
        <DataArray type="Float64" Name="v">
          0.00000000e+00 -2.10505053e+00 6.91712943e-01 3.34520538e+00 0.00000000e+00 -1.33377987e+01 -6.17903290e+00 1.43950612e+00 0.00000000e+00 -1.68160939e+01 -9.12560459e+00 -1.18391173e+00 0.00000000e+00 -1.53601338e+01 -1.11145780e+01 -4.37575813e+00 
        </DataArray>
        <DataArray type="Float64" Name="p">
          -7.01840522e+03 -6.47387434e+03 -5.92934345e+03 -5.38481257e+03 -6.68402008e+03 -6.30830661e+03 -5.93259314e+03 -5.55687967e+03 -6.34963493e+03 -6.14273888e+03 -5.93584282e+03 -5.72894677e+03 -6.01524979e+03 -5.97717115e+03 -5.93909251e+03 -5.90101387e+03 
        </DataArray>
      </PointData>
    </Piece>
    <Piece NumberOfPoints="16" NumberOfCells="9">
      <Points>
        <DataArray type="Float64" NumberOfComponents="3" format="ascii">
          2.50000000e+00 7.00000000e+00 0.00000000e+00 
3.33333325e+00 7.00000000e+00 0.00000000e+00 
4.16666651e+00 7.00000000e+00 0.00000000e+00 
5.00000000e+00 7.00000000e+00 0.00000000e+00 
2.50000000e+00 7.33333349e+00 0.00000000e+00 
3.33333325e+00 7.33333349e+00 0.00000000e+00 
4.16666651e+00 7.33333349e+00 0.00000000e+00 
5.00000000e+00 7.33333349e+00 0.00000000e+00 
2.50000000e+00 7.66666651e+00 0.00000000e+00 
3.33333325e+00 7.66666651e+00 0.00000000e+00 
4.16666651e+00 7.66666651e+00 0.00000000e+00 
5.00000000e+00 7.66666651e+00 0.00000000e+00 
2.50000000e+00 8.00000000e+00 0.00000000e+00 
3.33333325e+00 8.00000000e+00 0.00000000e+00 
4.16666651e+00 8.00000000e+00 0.00000000e+00 
5.00000000e+00 8.00000000e+00 0.00000000e+00 

        </DataArray>
      </Points>
      <Cells>
        <DataArray type="Int32" Name="connectivity" format="ascii">
0 1 5 4
4 5 9 8
8 9 13 12
1 2 6 5
5 6 10 9
9 10 14 13
2 3 7 6
6 7 11 10
10 11 15 14

        </DataArray>
        <DataArray type="Int32" Name="offsets" format="ascii">
4 8 12 16 20 24 28 32 36 
        </DataArray>
        <DataArray type="UInt8" Name="types" format="ascii">
9 9 9 9 9 9 9 9 9 
        </DataArray>
      </Cells>
      <PointData>
        <DataArray type="Float64" Name="u">
          0.00000000e+00 -5.34119946e+00 -5.01756009e+00 -4.36661109e+00 0.00000000e+00 -7.19066443e+00 -1.00525066e+01 -1.35644317e+01 0.00000000e+00 -7.46466458e+00 -1.19785571e+01 -1.80066710e+01 0.00000000e+00 -6.73787393e+00 -1.15110628e+01 -1.84083345e+01 
        </DataArray>
        <DataArray type="Float64" Name="v">
          0.00000000e+00 -1.53601338e+01 -1.11145780e+01 -4.37575813e+00 0.00000000e+00 -1.23679626e+01 -1.00714297e+01 -5.26377176e+00 0.00000000e+00 -9.48171958e+00 -8.16126636e+00 -4.85000295e+00 0.00000000e+00 -5.73079498e+00 -5.36594852e+00 -3.51436169e+00 
        </DataArray>
        <DataArray type="Float64" Name="p">
          -6.05268676e+03 -5.96645644e+03 -5.88022613e+03 -5.79399582e+03 -5.95990026e+03 -5.88886656e+03 -5.81783287e+03 -5.74679918e+03 -5.86711375e+03 -5.81127669e+03 -5.75543962e+03 -5.69960255e+03 -5.77432725e+03 -5.73368681e+03 -5.69304637e+03 -5.65240592e+03 
        </DataArray>
      </PointData>
    </Piece>
    <Piece NumberOfPoints="16" NumberOfCells="9">
      <Points>
        <DataArray type="Float64" NumberOfComponents="3" format="ascii">
          2.50000000e+00 8.00000000e+00 0.00000000e+00 
3.33333325e+00 8.00000000e+00 0.00000000e+00 
4.16666651e+00 8.00000000e+00 0.00000000e+00 
5.00000000e+00 8.00000000e+00 0.00000000e+00 
2.50000000e+00 8.33333302e+00 0.00000000e+00 
3.33333325e+00 8.33333302e+00 0.00000000e+00 
4.16666651e+00 8.33333302e+00 0.00000000e+00 
5.00000000e+00 8.33333302e+00 0.00000000e+00 
2.50000000e+00 8.66666698e+00 0.00000000e+00 
3.33333325e+00 8.66666698e+00 0.00000000e+00 
4.16666651e+00 8.66666698e+00 0.00000000e+00 
5.00000000e+00 8.66666698e+00 0.00000000e+00 
2.50000000e+00 9.00000000e+00 0.00000000e+00 
3.33333325e+00 9.00000000e+00 0.00000000e+00 
4.16666651e+00 9.00000000e+00 0.00000000e+00 
5.00000000e+00 9.00000000e+00 0.00000000e+00 

        </DataArray>
      </Points>
      <Cells>
        <DataArray type="Int32" Name="connectivity" format="ascii">
0 1 5 4
4 5 9 8
8 9 13 12
1 2 6 5
5 6 10 9
9 10 14 13
2 3 7 6
6 7 11 10
10 11 15 14

        </DataArray>
        <DataArray type="Int32" Name="offsets" format="ascii">
4 8 12 16 20 24 28 32 36 
        </DataArray>
        <DataArray type="UInt8" Name="types" format="ascii">
9 9 9 9 9 9 9 9 9 
        </DataArray>
      </Cells>
      <PointData>
        <DataArray type="Float64" Name="u">
          0.00000000e+00 -6.73787393e+00 -1.15110628e+01 -1.84083345e+01 0.00000000e+00 -5.25354847e+00 -9.09415840e+00 -1.53882217e+01 0.00000000e+00 -3.01745051e+00 -5.08849616e+00 -9.14616030e+00 0.00000000e+00 0.00000000e+00 0.00000000e+00 0.00000000e+00 
        </DataArray>
        <DataArray type="Float64" Name="v">
          0.00000000e+00 -5.73079498e+00 -5.36594852e+00 -3.51436169e+00 0.00000000e+00 -2.61835459e+00 -2.61699301e+00 -1.74444373e+00 0.00000000e+00 -8.85519619e-01 -9.50111392e-01 -6.55129540e-01 0.00000000e+00 0.00000000e+00 0.00000000e+00 0.00000000e+00 
        </DataArray>
        <DataArray type="Float64" Name="p">
          -5.78992041e+03 -5.73995744e+03 -5.68999448e+03 -5.64003151e+03 -5.80329058e+03 -5.75343697e+03 -5.70358336e+03 -5.65372976e+03 -5.81666075e+03 -5.76691650e+03 -5.71717225e+03 -5.66742800e+03 -5.83003093e+03 -5.78039603e+03 -5.73076114e+03 -5.68112624e+03 
        </DataArray>
      </PointData>
    </Piece>
    <Piece NumberOfPoints="16" NumberOfCells="9">
      <Points>
        <DataArray type="Float64" NumberOfComponents="3" format="ascii">
          5.00000000e+00 0.00000000e+00 0.00000000e+00 
5.83333349e+00 0.00000000e+00 0.00000000e+00 
6.66666651e+00 0.00000000e+00 0.00000000e+00 
7.50000000e+00 0.00000000e+00 0.00000000e+00 
5.00000000e+00 3.33333343e-01 0.00000000e+00 
5.83333349e+00 3.33333343e-01 0.00000000e+00 
6.66666651e+00 3.33333343e-01 0.00000000e+00 
7.50000000e+00 3.33333343e-01 0.00000000e+00 
5.00000000e+00 6.66666687e-01 0.00000000e+00 
5.83333349e+00 6.66666687e-01 0.00000000e+00 
6.66666651e+00 6.66666687e-01 0.00000000e+00 
7.50000000e+00 6.66666687e-01 0.00000000e+00 
5.00000000e+00 1.00000000e+00 0.00000000e+00 
5.83333349e+00 1.00000000e+00 0.00000000e+00 
6.66666651e+00 1.00000000e+00 0.00000000e+00 
7.50000000e+00 1.00000000e+00 0.00000000e+00 

        </DataArray>
      </Points>
      <Cells>
        <DataArray type="Int32" Name="connectivity" format="ascii">
0 1 5 4
4 5 9 8
8 9 13 12
1 2 6 5
5 6 10 9
9 10 14 13
2 3 7 6
6 7 11 10
10 11 15 14

        </DataArray>
        <DataArray type="Int32" Name="offsets" format="ascii">
4 8 12 16 20 24 28 32 36 
        </DataArray>
        <DataArray type="UInt8" Name="types" format="ascii">
9 9 9 9 9 9 9 9 9 
        </DataArray>
      </Cells>
      <PointData>
        <DataArray type="Float64" Name="u">