<?xml version="1.0"?>
<VTKFile type="UnstructuredGrid" version="0.1" byte_order="LittleEndian">
  <UnstructuredGrid>
    <Piece NumberOfPoints="16" NumberOfCells="9">
      <Points>
        <DataArray type="Float64" NumberOfComponents="3" format="ascii">
          0.00000000e+00 3.00000000e+00 0.00000000e+00 
8.33333313e-01 3.00000000e+00 0.00000000e+00 
1.66666663e+00 3.00000000e+00 0.00000000e+00 
2.50000000e+00 3.00000000e+00 0.00000000e+00 
0.00000000e+00 3.33333325e+00 0.00000000e+00 
8.33333313e-01 3.33333325e+00 0.00000000e+00 
1.66666663e+00 3.33333325e+00 0.00000000e+00 
2.50000000e+00 3.33333325e+00 0.00000000e+00 
0.00000000e+00 3.66666675e+00 0.00000000e+00 
8.33333313e-01 3.66666675e+00 0.00000000e+00 
1.66666663e+00 3.66666675e+00 0.00000000e+00 
2.50000000e+00 3.66666675e+00 0.00000000e+00 
0.00000000e+00 4.00000000e+00 0.00000000e+00 
8.33333313e-01 4.00000000e+00 0.00000000e+00 
1.66666663e+00 4.00000000e+00 0.00000000e+00 
2.50000000e+00 4.00000000e+00 0.00000000e+00 

        </DataArray>
      </Points>
      <Cells>
        <DataArray type="Int32" Name="connectivity" format="ascii">
0 1 5 4
4 5 9 8
8 9 13 12
1 2 6 5
5 6 10 9
9 10 14 13
2 3 7 6
6 7 11 10
10 11 15 14

        </DataArray>
        <DataArray type="Int32" Name="offsets" format="ascii">
4 8 12 16 20 24 28 32 36 
        </DataArray>
        <DataArray type="UInt8" Name="types" format="ascii">
9 9 9 9 9 9 9 9 9 
        </DataArray>
      </Cells>
      <PointData>
        <DataArray type="Float64" Name="u">
          0.00000000e+00 0.00000000e+00 0.00000000e+00 0.00000000e+00 8.88888889e+01 8.79994648e+01 8.82864947e+01 8.56637516e+01 1.55555556e+02 1.53897794e+02 1.54852319e+02 1.51068400e+02 2.00000000e+02 1.97994663e+02 1.99262714e+02 1.95554557e+02 
        </DataArray>
        <DataArray type="Float64" Name="v">
          0.00000000e+00 0.00000000e+00 0.00000000e+00 0.00000000e+00 0.00000000e+00 2.33824156e-01 8.44763485e-01 -7.46975827e-02 0.00000000e+00 2.68509786e-01 9.45140012e-01 1.28071429e+00 0.00000000e+00 8.29984278e-01 1.96625458e+00 2.64421214e+00 
        </DataArray>
        <DataArray type="Float64" Name="p">
          -1.71132743e+03 -3.06172564e+03 -4.41212385e+03 -5.76252206e+03 -1.73677351e+03 -3.08401090e+03 -4.43124829e+03 -5.77848568e+03 -1.76221958e+03 -3.10629616e+03 -4.45037273e+03 -5.79444930e+03 -1.78766566e+03 -3.12858142e+03 -4.46949717e+03 -5.81041292e+03 
        </DataArray>
      </PointData>
    </Piece>
    <Piece NumberOfPoints="16" NumberOfCells="9">
      <Points>
        <DataArray type="Float64" NumberOfComponents="3" format="ascii">
          0.00000000e+00 4.00000000e+00 0.00000000e+00 
8.33333313e-01 4.00000000e+00 0.00000000e+00 
1.66666663e+00 4.00000000e+00 0.00000000e+00 
2.50000000e+00 4.00000000e+00 0.00000000e+00 
0.00000000e+00 4.33333349e+00 0.00000000e+00 
8.33333313e-01 4.33333349e+00 0.00000000e+00 
1.66666663e+00 4.33333349e+00 0.00000000e+00 
2.50000000e+00 4.33333349e+00 0.00000000e+00 
0.00000000e+00 4.66666651e+00 0.00000000e+00 
8.33333313e-01 4.66666651e+00 0.00000000e+00 
1.66666663e+00 4.66666651e+00 0.00000000e+00 
2.50000000e+00 4.66666651e+00 0.00000000e+00 
0.00000000e+00 5.00000000e+00 0.00000000e+00 
8.33333313e-01 5.00000000e+00 0.00000000e+00 
1.66666663e+00 5.00000000e+00 0.00000000e+00 
2.50000000e+00 5.00000000e+00 0.00000000e+00 

        </DataArray>
      </Points>
      <Cells>
        <DataArray type="Int32" Name="connectivity" format="ascii">
0 1 5 4
4 5 9 8
8 9 13 12
1 2 6 5
5 6 10 9
9 10 14 13
2 3 7 6
6 7 11 10
10 11 15 14

        </DataArray>
        <DataArray type="Int32" Name="offsets" format="ascii">
4 8 12 16 20 24 28 32 36 
        </DataArray>
        <DataArray type="UInt8" Name="types" format="ascii">
9 9 9 9 9 9 9 9 9 
        </DataArray>
      </Cells>
      <PointData>
        <DataArray type="Float64" Name="u">
          2.00000000e+02 1.97994663e+02 1.99262714e+02 1.95554557e+02 2.22222222e+02 2.20610521e+02 2.21773317e+02 2.19430005e+02 2.22222222e+02 2.21324609e+02 2.22582966e+02 2.21663808e+02 2.00000000e+02 1.99986380e+02 2.01426339e+02 2.01921182e+02 
        </DataArray>
        <DataArray type="Float64" Name="v">
          0.00000000e+00 8.29984278e-01 1.96625458e+00 2.64421214e+00 0.00000000e+00 1.36514745e+00 2.50949358e+00 3.92404326e+00 0.00000000e+00 1.38795492e+00 2.72069319e+00 3.85691657e+00 0.00000000e+00 1.44375004e+00 2.46074211e+00 4.34991366e+00 
        </DataArray>
        <DataArray type="Float64" Name="p">
          -1.77770499e+03 -3.13408558e+03 -4.49046618e+03 -5.84684677e+03 -1.89564819e+03 -3.25210660e+03 -4.60856501e+03 -5.96502342e+03 -2.01359139e+03 -3.37012762e+03 -4.72666384e+03 -6.08320006e+03 -2.13153460e+03 -3.48814864e+03 -4.84476267e+03 -6.20137671e+03 
        </DataArray>
      </PointData>
    </Piece>
    <Piece NumberOfPoints="16" NumberOfCells="9">
      <Points>
        <DataArray type="Float64" NumberOfComponents="3" format="ascii">
          0.00000000e+00 5.00000000e+00 0.00000000e+00 
8.33333313e-01 5.00000000e+00 0.00000000e+00 
1.66666663e+00 5.00000000e+00 0.00000000e+00 
2.50000000e+00 5.00000000e+00 0.00000000e+00 
0.00000000e+00 5.33333349e+00 0.00000000e+00 
8.33333313e-01 5.33333349e+00 0.00000000e+00 
1.66666663e+00 5.33333349e+00 0.00000000e+00 
2.50000000e+00 5.33333349e+00 0.00000000e+00 
0.00000000e+00 5.66666651e+00 0.00000000e+00 
8.33333313e-01 5.66666651e+00 0.00000000e+00 
1.66666663e+00 5.66666651e+00 0.00000000e+00 
2.50000000e+00 5.66666651e+00 0.00000000e+00 
0.00000000e+00 6.00000000e+00 0.00000000e+00 
8.33333313e-01 6.00000000e+00 0.00000000e+00 
1.66666663e+00 6.00000000e+00 0.00000000e+00 
2.50000000e+00 6.00000000e+00 0.00000000e+00 

        </DataArray>
      </Points>
      <Cells>
        <DataArray type="Int32" Name="connectivity" format="ascii">
0 1 5 4
4 5 9 8
8 9 13 12
1 2 6 5
5 6 10 9
9 10 14 13
2 3 7 6
6 7 11 10
10 11 15 14

        </DataArray>
        <DataArray type="Int32" Name="offsets" format="ascii">
4 8 12 16 20 24 28 32 36 
        </DataArray>
        <DataArray type="UInt8" Name="types" format="ascii">
9 9 9 9 9 9 9 9 9 
        </DataArray>
      </Cells>
      <PointData>
        <DataArray type="Float64" Name="u">
          2.00000000e+02 1.99986380e+02 2.01426339e+02 2.01921182e+02 1.55555556e+02 1.56873847e+02 1.57655244e+02 1.60552583e+02 8.88888889e+01 9.09986213e+01 9.06980703e+01 9.66376260e+01 0.00000000e+00 0.00000000e+00 0.00000000e+00 0.00000000e+00 
        </DataArray>
        <DataArray type="Float64" Name="v">
          0.00000000e+00 1.44375004e+00 2.46074211e+00 4.34991366e+00 0.00000000e+00 6.96765311e-01 1.45749994e+00 3.06327964e+00 0.00000000e+00 7.30931264e-01 9.50703241e-01 3.38265698e+00 0.00000000e+00 0.00000000e+00 0.00000000e+00 0.00000000e+00 
        </DataArray>
        <DataArray type="Float64" Name="p">
          -2.16544559e+03 -3.52161794e+03 -4.87779029e+03 -6.23396265e+03 -2.17103470e+03 -3.55025541e+03 -4.92947613e+03 -6.30869684e+03 -2.17662381e+03 -3.57889289e+03 -4.98116196e+03 -6.38343103e+03 -2.18221292e+03 -3.60753036e+03 -5.03284779e+03 -6.45816522e+03 
        </DataArray>
      </PointData>
    </Piece>
    <Piece NumberOfPoints="16" NumberOfCells="9">
      <Points>
        <DataArray type="Float64" NumberOfComponents="3" format="ascii">
          2.50000000e+00 0.00000000e+00 0.00000000e+00 
3.33333325e+00 0.00000000e+00 0.00000000e+00 
4.16666651e+00 0.00000000e+00 0.00000000e+00 
5.00000000e+00 0.00000000e+00 0.00000000e+00 
2.50000000e+00 3.33333343e-01 0.00000000e+00 
3.33333325e+00 3.33333343e-01 0.00000000e+00 
4.16666651e+00 3.33333343e-01 0.00000000e+00 
5.00000000e+00 3.33333343e-01 0.00000000e+00 
2.50000000e+00 6.66666687e-01 0.00000000e+00 
3.33333325e+00 6.66666687e-01 0.00000000e+00 
4.16666651e+00 6.66666687e-01 0.00000000e+00 
5.00000000e+00 6.66666687e-01 0.00000000e+00 
2.50000000e+00 1.00000000e+00 0.00000000e+00 
3.33333325e+00 1.00000000e+00 0.00000000e+00 
4.16666651e+00 1.00000000e+00 0.00000000e+00 
5.00000000e+00 1.00000000e+00 0.00000000e+00 

        </DataArray>
      </Points>
      <Cells>
        <DataArray type="Int32" Name="connectivity" format="ascii">
0 1 5 4
4 5 9 8
8 9 13 12
1 2 6 5
5 6 10 9
9 10 14 13
2 3 7 6
6 7 11 10
10 11 15 14

        </DataArray>
        <DataArray type="Int32" Name="offsets" format="ascii">
4 8 12 16 20 24 28 32 36 
        </DataArray>
        <DataArray type="UInt8" Name="types" format="ascii">
9 9 9 9 9 9 9 9 9 
        </DataArray>
      </Cells>
      <PointData>
        <DataArray type="Float64" Name="u">
          0.00000000e+00 0.00000000e+00 0.00000000e+00 0.00000000e+00 0.00000000e+00 -2.69672292e+00 -4.60170481e+00 -8.17780115e+00 0.00000000e+00 -4.74745938e+00 -8.31595421e+00 -1.38985292e+01 0.00000000e+00 -6.18456601e+00 -1.07224066e+01 -1.70237849e+01 
        </DataArray>
        <DataArray type="Float64" Name="v">
          0.00000000e+00 0.00000000e+00 0.00000000e+00 0.00000000e+00 0.00000000e+00 7.90427904e-01 8.47931832e-01 5.39355986e-01 0.00000000e+00 2.37282646e+00 2.35718327e+00 1.50655563e+00 0.00000000e+00 5.22700612e+00 4.83676492e+00 3.10979728e+00 
        </DataArray>
        <DataArray type="Float64" Name="p">
          -5.14660547e+03 -5.10569217e+03 -5.06477888e+03 -5.02386558e+03 -5.13382003e+03 -5.09299993e+03 -5.05217983e+03 -5.01135972e+03 -5.12103459e+03 -5.08030768e+03 -5.03958077e+03 -4.99885386e+03 -5.10824916e+03 -5.06761544e+03 -5.02698172e+03 -4.98634800e+03 
        </DataArray>
      </PointData>
    </Piece>
    <Piece NumberOfPoints="16" NumberOfCells="9">
      <Points>
        <DataArray type="Float64" NumberOfComponents="3" format="ascii">
          2.50000000e+00 1.00000000e+00 0.00000000e+00 
3.33333325e+00 1.00000000e+00 0.00000000e+00 
4.16666651e+00 1.00000000e+00 0.00000000e+00 
5.00000000e+00 1.00000000e+00 0.00000000e+00 
2.50000000e+00 1.33333337e+00 0.00000000e+00 
3.33333325e+00 1.33333337e+00 0.00000000e+00 
4.16666651e+00 1.33333337e+00 0.00000000e+00 
5.00000000e+00 1.33333337e+00 0.00000000e+00 
2.50000000e+00 1.66666663e+00 0.00000000e+00 
3.33333325e+00 1.66666663e+00 0.00000000e+00 
4.16666651e+00 1.66666663e+00 0.00000000e+00 
5.00000000e+00 1.66666663e+00 0.00000000e+00 
2.50000000e+00 2.00000000e+00 0.00000000e+00 
3.33333325e+00 2.00000000e+00 0.00000000e+00 
4.16666651e+00 2.00000000e+00 0.00000000e+00 
5.00000000e+00 2.00000000e+00 0.00000000e+00 

        </DataArray>
      </Points>
      <Cells>
        <DataArray type="Int32" Name="connectivity" format="ascii">
0 1 5 4
4 5 9 8
8 9 13 12
1 2 6 5
5 6 10 9
9 10 14 13
2 3 7 6
6 7 11 10
10 11 15 14

        </DataArray>
        <DataArray type="Int32" Name="offsets" format="ascii">
4 8 12 16 20 24 28 32 36 
        </DataArray>
        <DataArray type="UInt8" Name="types" format="ascii">
9 9 9 9 9 9 9 9 9 
        </DataArray>
      </Cells>
      <PointData>
        <DataArray type="Float64" Name="u">
          0.00000000e+00 -6.18456601e+00 -1.07224066e+01 -1.70237849e+01 0.00000000e+00 -7.00598865e+00 -1.15185208e+01 -1.73607085e+01 0.00000000e+00 -6.96224293e+00 -1.02575591e+01 -1.42891346e+01 0.00000000e+00 -5.49445618e+00 -6.22944816e+00 -7.07426782e+00 
        </DataArray>
        <DataArray type="Float64" Name="v">
          0.00000000e+00 5.22700612e+00 4.83676492e+00 3.10979728e+00 0.00000000e+00 8.75657824e+00 7.45287489e+00 4.48024668e+00 0.00000000e+00 1.15603748e+01 9.36936587e+00 5.16350319e+00 0.00000000e+00 1.46321432e+01 1.06991267e+01 4.92633376e+00 
        </DataArray>
        <DataArray type="Float64" Name="p">
          -5.09257785e+03 -5.06021970e+03 -5.02786156e+03 -4.99550341e+03 -5.17886601e+03 -5.12978876e+03 -5.08071151e+03 -5.03163426e+03 -5.26515417e+03 -5.19935782e+03 -5.13356146e+03 -5.06776511e+03 -5.35144233e+03 -5.26892687e+03 -5.18641142e+03 -5.10389596e+03 
        </DataArray>
      </PointData>
    </Piece>
    <Piece NumberOfPoints="16" NumberOfCells="9">
      <Points>
        <DataArray type="Float64" NumberOfComponents="3" format="ascii">
          2.50000000e+00 2.00000000e+00 0.00000000e+00 
3.33333325e+00 2.00000000e+00 0.00000000e+00 
4.16666651e+00 2.00000000e+00 0.00000000e+00 
5.00000000e+00 2.00000000e+00 0.00000000e+00 
2.50000000e+00 2.33333325e+00 0.00000000e+00 
3.33333325e+00 2.33333325e+00 0.00000000e+00 
4.16666651e+00 2.33333325e+00 0.00000000e+00 
5.00000000e+00 2.33333325e+00 0.00000000e+00 
2.50000000e+00 2.66666675e+00 0.00000000e+00 
3.33333325e+00 2.66666675e+00 0.00000000e+00 
4.16666651e+00 2.66666675e+00 0.00000000e+00 
5.00000000e+00 2.66666675e+00 0.00000000e+00 
2.50000000e+00 3.00000000e+00 0.00000000e+00 
3.33333325e+00 3.00000000e+00 0.00000000e+00 
4.16666651e+00 3.00000000e+00 0.00000000e+00 
5.00000000e+00 3.00000000e+00 0.00000000e+00 

        </DataArray>
      </Points>
      <Cells>
        <DataArray type="Int32" Name="connectivity" format="ascii">
0 1 5 4
4 5 9 8
8 9 13 12
1 2 6 5
5 6 10 9
9 10 14 13
2 3 7 6
6 7 11 10
10 11 15 14

        </DataArray>
        <DataArray type="Int32" Name="offsets" format="ascii">
4 8 12 16 20 24 28 32 36 
        </DataArray>
        <DataArray type="UInt8" Name="types" format="ascii">
9 9 9 9 9 9 9 9 9 
        </DataArray>
      </Cells>
      <PointData>
        <DataArray type="Float64" Name="u">
          0.00000000e+00 -5.49445618e+00 -6.22944816e+00 -7.07426782e+00 0.00000000e+00 -1.43028515e+00 1.26356791e+00 6.51043033e+00 0.00000000e+00 1.02980229e+01 1.60476390e+01 2.69856998e+01 0.00000000e+00 4.15766282e+01 4.39083711e+01 5.71429591e+01 
        </DataArray>
        <DataArray type="Float64" Name="v">
          0.00000000e+00 1.46321432e+01 1.06991267e+01 4.92633376e+00 0.00000000e+00 1.64164093e+01 9.52899172e+00 2.86437576e+00 0.00000000e+00 1.38128720e+01 7.64844729e+00 1.30524664e+00 0.00000000e+00 4.28912621e+00 2.41513413e+00 5.84529537e-01 
        </DataArray>
        <DataArray type="Float64" Name="p">
          -5.32019547e+03 -5.27868975e+03 -5.23718404e+03 -5.19567832e+03 -5.63153594e+03 -5.43776058e+03 -5.24398521e+03 -5.05020984e+03 -5.94287641e+03 -5.59683140e+03 -5.25078638e+03 -4.90474137e+03 -6.25421689e+03 -5.75590222e+03 -5.25758756e+03 -4.75927289e+03 
        </DataArray>
      </PointData>
    </Piece>
    <Piece NumberOfPoints="16" NumberOfCells="9">
      <Points>
        <DataArray type="Float64" NumberOfComponents="3" format="ascii">
          2.50000000e+00 3.00000000e+00 0.00000000e+00 
3.33333325e+00 3.00000000e+00 0.00000000e+00 
4.16666651e+00 3.00000000e+00 0.00000000e+00 
5.00000000e+00 3.00000000e+00 0.00000000e+00 
2.50000000e+00 3.33333325e+00 0.00000000e+00 
3.33333325e+00 3.33333325e+00 0.00000000e+00 
4.16666651e+00 3.33333325e+00 0.00000000e+00 
5.00000000e+00 3.33333325e+00 0.00000000e+00 
2.50000000e+00 3.66666675e+00 0.00000000e+00 
3.33333325e+00 3.66666675e+00 0.00000000e+00 
4.16666651e+00 3.66666675e+00 0.00000000e+00 
5.00000000e+00 3.66666675e+00 0.00000000e+00 
2.50000000e+00 4.00000000e+00 0.00000000e+00 
3.33333325e+00 4.00000000e+00 0.00000000e+00 
4.16666651e+00 4.00000000e+00 0.00000000e+00 
5.00000000e+00 4.00000000e+00 0.00000000e+00 

        </DataArray>
      </Points>
      <Cells>
        <DataArray type="Int32" Name="connectivity" format="ascii">
0 1 5 4
4 5 9 8
8 9 13 12
1 2 6 5
5 6 10 9
9 10 14 13
2 3 7 6
6 7 11 10
10 11 15 14

        </DataArray>
        <DataArray type="Int32" Name="offsets" format="ascii">
4 8 12 16 20 24 28 32 36 
        </DataArray>
        <DataArray type="UInt8" Name="types" format="ascii">
9 9 9 9 9 9 9 9 9 
        </DataArray>
      </Cells>
      <PointData>
        <DataArray type="Float64" Name="u">
          0.00000000e+00 4.15766282e+01 4.39083711e+01 5.71429591e+01 8.56637516e+01 8.88356862e+01 8.95910487e+01 9.16194861e+01 1.51068400e+02 1.44363488e+02 1.40620014e+02 1.34255803e+02 1.95554557e+02 1.87023847e+02 1.82798409e+02 1.72248282e+02 
        </DataArray>
        <DataArray type="Float64" Name="v">
          0.00000000e+00 4.28912621e+00 2.41513413e+00 5.84529537e-01 -7.46975827e-02 -2.86874194e+00 -4.55741298e-03 3.30402791e+00 1.28071429e+00 -2.91904634e+00 -1.16484219e+00 3.92751380e+00 2.64421214e+00 7.20291842e-01 2.90217735e+00 6.67925245e+00 
        </DataArray>
        <DataArray type="Float64" Name="p">
          -6.29089413e+03 -5.70130584e+03 -5.11171755e+03 -4.52212926e+03 -5.91486743e+03 -5.54903976e+03 -5.18321208e+03 -4.81738441e+03 -5.53884072e+03 -5.39677367e+03 -5.25470662e+03 -5.11263956e+03 -5.16281402e+03 -5.24450758e+03 -5.32620115e+03 -5.40789471e+03 
        </DataArray>
      </PointData>
    </Piece>
    <Piece NumberOfPoints="16" NumberOfCells="9">
      <Points>
        <DataArray type="Float64" NumberOfComponents="3" format="ascii">
          2.50000000e+00 4.00000000e+00 0.00000000e+00 
3.33333325e+00 4.00000000e+00 0.00000000e+00 
4.16666651e+00 4.00000000e+00 0.00000000e+00 
5.00000000e+00 4.00000000e+00 0.00000000e+00 
2.50000000e+00 4.33333349e+00 0.00000000e+00 
3.33333325e+00 4.33333349e+00 0.00000000e+00 
4.16666651e+00 4.33333349e+00 0.00000000e+00 
5.00000000e+00 4.33333349e+00 0.00000000e+00 
2.50000000e+00 4.66666651e+00 0.00000000e+00 
3.33333325e+00 4.66666651e+00 0.00000000e+00 
4.16666651e+00 4.66666651e+00 0.00000000e+00 
5.00000000e+00 4.66666651e+00 0.00000000e+00 
2.50000000e+00 5.00000000e+00 0.00000000e+00 
3.33333325e+00 5.00000000e+00 0.00000000e+00 
4.16666651e+00 5.00000000e+00 0.00000000e+00 
5.00000000e+00 5.00000000e+00 0.00000000e+00 

        </DataArray>
      </Points>
      <Cells>
        <DataArray type="Int32" Name="connectivity" format="ascii">
0 1 5 4
4 5 9 8
8 9 13 12
1 2 6 5
5 6 10 9
9 10 14 13
2 3 7 6
6 7 11 10
10 11 15 14

        </DataArray>
        <DataArray type="Int32" Name="offsets" format="ascii">
4 8 12 16 20 24 28 32 36 
        </DataArray>
        <DataArray type="UInt8" Name="types" format="ascii">
9 9 9 9 9 9 9 9 9 
        </DataArray>
      </Cells>
      <PointData>
        <DataArray type="Float64" Name="u">
          1.95554557e+02 1.87023847e+02 1.82798409e+02 1.72248282e+02 2.19430005e+02 2.10664881e+02 2.07054137e+02 1.96756440e+02 2.21663808e+02 2.13820828e+02 2.12000135e+02 2.03422687e+02 2.01921182e+02 1.95767214e+02 1.96952052e+02 1.90750108e+02 
        </DataArray>
        <DataArray type="Float64" Name="v">
          2.64421214e+00 7.20291842e-01 2.90217735e+00 6.67925245e+00 3.92404326e+00 5.30654616e+00 6.76143136e+00 9.20858856e+00 3.85691657e+00 6.41450838e+00 9.36341021e+00 1.17444296e+01 4.34991366e+00 1.00500689e+01 1.19944823e+01 1.25958678e+01 
        </DataArray>
        <DataArray type="Float64" Name="p">
          -5.02185795e+03 -5.19944196e+03 -5.37702597e+03 -5.55460997e+03 -5.19440607e+03 -5.39801028e+03 -5.60161449e+03 -5.80521869e+03 -5.36695419e+03 -5.59657860e+03 -5.82620300e+03 -6.05582741e+03 -5.53950231e+03 -5.79514692e+03 -6.05079152e+03 -6.30643613e+03 
        </DataArray>
      </PointData>
    </Piece>
    <Piece NumberOfPoints="16" NumberOfCells="9">
      <Points>
        <DataArray type="Float64" NumberOfComponents="3" format="ascii">
          2.50000000e+00 5.00000000e+00 0.00000000e+00 
3.33333325e+00 5.00000000e+00 0.00000000e+00 
4.16666651e+00 5.00000000e+00 0.00000000e+00 
5.00000000e+00 5.00000000e+00 0.00000000e+00 
2.50000000e+00 5.33333349e+00 0.00000000e+00 
3.33333325e+00 5.33333349e+00 0.00000000e+00 
4.16666651e+00 5.33333349e+00 0.00000000e+00 
5.00000000e+00 5.33333349e+00 0.00000000e+00 
2.50000000e+00 5.66666651e+00 0.00000000e+00 
3.33333325e+00 5.66666651e+00 0.00000000e+00 
4.16666651e+00 5.66666651e+00 0.00000000e+00 
5.00000000e+00 5.66666651e+00 0.00000000e+00 
2.50000000e+00 6.00000000e+00 0.00000000e+00 
3.33333325e+00 6.00000000e+00 0.00000000e+00 
4.16666651e+00 6.00000000e+00 0.00000000e+00 
5.00000000e+00 6.00000000e+00 0.00000000e+00 

        </DataArray>
      </Points>
      <Cells>
        <DataArray type="Int32" Name="connectivity" format="ascii">
0 1 5 4
4 5 9 8
8 9 13 12
1 2 6 5
5 6 10 9
9 10 14 13
2 3 7 6
6 7 11 10
10 11 15 14

        </DataArray>
        <DataArray type="Int32" Name="offsets" format="ascii">
4 8 12 16 20 24 28 32 36 
        </DataArray>
        <DataArray type="UInt8" Name="types" format="ascii">
9 9 9 9 9 9 9 9 9 
        </DataArray>
      </Cells>
      <PointData>
        <DataArray type="Float64" Name="u">
          2.01921182e+02 1.95767214e+02 1.96952052e+02 1.90750108e+02 1.60552583e+02 1.57953611e+02 1.61345367e+02 1.61653755e+02 9.66376260e+01 1.03356664e+02 1.12019523e+02 1.21280348e+02 0.00000000e+00 5.17567868e+01 6.10548659e+01 8.24607846e+01 
        </DataArray>
        <DataArray type="Float64" Name="v">
          4.34991366e+00 1.00500689e+01 1.19944823e+01 1.25958678e+01 3.06327964e+00 1.12678060e+01 1.30028044e+01 1.12147187e+01 3.38265698e+00 1.08457975e+01 1.11123205e+01 9.62382067e+00 0.00000000e+00 4.39762630e-01 4.59298816e+00 8.57262511e+00 
        </DataArray>
        <DataArray type="Float64" Name="p">
          -5.73277117e+03 -5.91473189e+03 -6.09669260e+03 -6.27865332e+03 -6.36704172e+03 -6.26188270e+03 -6.15672368e+03 -6.05156467e+03 -7.00131226e+03 -6.60903351e+03 -6.21675477e+03 -5.82447602e+03 -7.63558281e+03 -6.95618433e+03 -6.27678585e+03 -5.59738737e+03 
        </DataArray>
      </PointData>
    </Piece>
    <Piece NumberOfPoints="16" NumberOfCells="9">
      <Points>
        <DataArray type="Float64" NumberOfComponents="3" format="ascii">
          2.50000000e+00 6.00000000e+00 0.00000000e+00 
3.33333325e+00 6.00000000e+00 0.00000000e+00 
4.16666651e+00 6.00000000e+00 0.00000000e+00 
5.00000000e+00 6.00000000e+00 0.00000000e+00 
2.50000000e+00 6.33333349e+00 0.00000000e+00 
3.33333325e+00 6.33333349e+00 0.00000000e+00 
4.16666651e+00 6.33333349e+00 0.00000000e+00 
5.00000000e+00 6.33333349e+00 0.00000000e+00 
2.50000000e+00 6.66666651e+00 0.00000000e+00 
3.33333325e+00 6.66666651e+00 0.00000000e+00 
4.16666651e+00 6.66666651e+00 0.00000000e+00 
5.00000000e+00 6.66666651e+00 0.00000000e+00 
2.50000000e+00 7.00000000e+00 0.00000000e+00 
3.33333325e+00 7.00000000e+00 0.00000000e+00 
4.16666651e+00 7.00000000e+00 0.00000000e+00 
5.00000000e+00 7.00000000e+00 0.00000000e+00 

        </DataArray>
      </Points>
      <Cells>
        <DataArray type="Int32" Name="connectivity" format="ascii">
0 1 5 4
4 5 9 8
8 9 13 12
1 2 6 5
5 6 10 9
9 10 14 13
2 3 7 6
6 7 11 10
10 11 15 14

        </DataArray>
        <DataArray type="Int32" Name="offsets" format="ascii">
4 8 12 16 20 24 28 32 36 
        </DataArray>
        <DataArray type="UInt8" Name="types" format="ascii">
9 9 9 9 9 9 9 9 9 
        </DataArray>
      </Cells>
      <PointData>
        <DataArray type="Float64" Name="u">
          0.00000000e+00 5.17567868e+01 6.10548659e+01 8.24607846e+01 0.00000000e+00 1.46748447e+01 2.60754567e+01 4.54839782e+01 0.00000000e+00 2.22101734e-01 6.78532128e+00 1.85953557e+01 0.00000000e+00 -5.06462789e+00 -3.47318764e+00 -7.25247185e-01 
        </DataArray>
        <DataArray type="Float64" Name="v">
          0.00000000e+00 4.39762630e-01 4.59298816e+00 8.57262511e+00 0.00000000e+00 -1.26565232e+01 -4.17755551e+00 5.21642728e+00 0.00000000e+00 -1.71237065e+01 -8.42857190e+00 1.34692473e+00 0.00000000e+00 -1.60640859e+01 -1.14625591e+01 -3.33860321e+00 
        </DataArray>
        <DataArray type="Float64" Name="p">
          -7.53254838e+03 -6.94491431e+03 -6.35728025e+03 -5.76964618e+03 -7.17675213e+03 -6.77600798e+03 -6.37526382e+03 -5.97451967e+03 -6.82095587e+03 -6.60710164e+03 -6.39324740e+03 -6.17939316e+03 -6.46515962e+03 -6.43819530e+03 -6.41123097e+03 -6.38426665e+03 
        </DataArray>
      </PointData>
    </Piece>
    <Piece NumberOfPoints="16" NumberOfCells="9">
      <Points>
        <DataArray type="Float64" NumberOfComponents="3" format="ascii">
          2.50000000e+00 7.00000000e+00 0.00000000e+00 
3.33333325e+00 7.00000000e+00 0.00000000e+00 
4.16666651e+00 7.00000000e+00 0.00000000e+00 
5.00000000e+00 7.00000000e+00 0.00000000e+00 
2.50000000e+00 7.33333349e+00 0.00000000e+00 
3.33333325e+00 7.33333349e+00 0.00000000e+00 
4.16666651e+00 7.33333349e+00 0.00000000e+00 
5.00000000e+00 7.33333349e+00 0.00000000e+00 
2.50000000e+00 7.66666651e+00 0.00000000e+00 
3.33333325e+00 7.66666651e+00 0.00000000e+00 
4.16666651e+00 7.66666651e+00 0.00000000e+00 
5.00000000e+00 7.66666651e+00 0.00000000e+00 
2.50000000e+00 8.00000000e+00 0.00000000e+00 
3.33333325e+00 8.00000000e+00 0.00000000e+00 
4.16666651e+00 8.00000000e+00 0.00000000e+00 
5.00000000e+00 8.00000000e+00 0.00000000e+00 

        </DataArray>
      </Points>
      <Cells>
        <DataArray type="Int32" Name="connectivity" format="ascii">
0 1 5 4
4 5 9 8
8 9 13 12
1 2 6 5
5 6 10 9
9 10 14 13
2 3 7 6
6 7 11 10
10 11 15 14

        </DataArray>
        <DataArray type="Int32" Name="offsets" format="ascii">
4 8 12 16 20 24 28 32 36 
        </DataArray>
        <DataArray type="UInt8" Name="types" format="ascii">
9 9 9 9 9 9 9 9 9 
        </DataArray>
      </Cells>
      <PointData>
        <DataArray type="Float64" Name="u">
          0.00000000e+00 -5.06462789e+00 -3.47318764e+00 -7.25247185e-01 0.00000000e+00 -7.34827481e+00 -9.64804977e+00 -1.22888493e+01 0.00000000e+00 -7.91533456e+00 -1.23808373e+01 -1.84649401e+01 0.00000000e+00 -7.33465519e+00 -1.23523750e+01 -1.98833209e+01 
        </DataArray>
        <DataArray type="Float64" Name="v">
          0.00000000e+00 -1.60640859e+01 -1.14625591e+01 -3.33860321e+00 0.00000000e+00 -1.32122684e+01 -1.08409953e+01 -5.11940263e+00 0.00000000e+00 -1.02629732e+01 -8.97440533e+00 -5.11975530e+00 0.00000000e+00 -6.29112488e+00 -5.99658322e+00 -3.90743929e+00 
        </DataArray>
        <DataArray type="Float64" Name="p">
          -6.51053524e+03 -6.42719077e+03 -6.34384630e+03 -6.26050182e+03 -6.41381665e+03 -6.34185667e+03 -6.26989668e+03 -6.19793670e+03 -6.31709805e+03 -6.25652256e+03 -6.19594707e+03 -6.13537158e+03 -6.22037946e+03 -6.17118846e+03 -6.12199745e+03 -6.07280645e+03 
        </DataArray>
      </PointData>
    </Piece>
    <Piece NumberOfPoints="16" NumberOfCells="9">
      <Points>
        <DataArray type="Float64" NumberOfComponents="3" format="ascii">
          2.50000000e+00 8.00000000e+00 0.00000000e+00 
3.33333325e+00 8.00000000e+00 0.00000000e+00 
4.16666651e+00 8.00000000e+00 0.00000000e+00 
5.00000000e+00 8.00000000e+00 0.00000000e+00 
2.50000000e+00 8.33333302e+00 0.00000000e+00 
3.33333325e+00 8.33333302e+00 0.00000000e+00 
4.16666651e+00 8.33333302e+00 0.00000000e+00 
5.00000000e+00 8.33333302e+00 0.00000000e+00 
2.50000000e+00 8.66666698e+00 0.00000000e+00 
3.33333325e+00 8.66666698e+00 0.00000000e+00 
4.16666651e+00 8.66666698e+00 0.00000000e+00 
5.00000000e+00 8.66666698e+00 0.00000000e+00 
2.50000000e+00 9.00000000e+00 0.00000000e+00 
3.33333325e+00 9.00000000e+00 0.00000000e+00 
4.16666651e+00 9.00000000e+00 0.00000000e+00 
5.00000000e+00 9.00000000e+00 0.00000000e+00 

        </DataArray>
      </Points>
      <Cells>
        <DataArray type="Int32" Name="connectivity" format="ascii">
0 1 5 4
4 5 9 8
8 9 13 12
1 2 6 5
5 6 10 9
9 10 14 13
2 3 7 6
6 7 11 10
10 11 15 14

        </DataArray>
        <DataArray type="Int32" Name="offsets" format="ascii">
4 8 12 16 20 24 28 32 36 
        </DataArray>
        <DataArray type="UInt8" Name="types" format="ascii">
9 9 9 9 9 9 9 9 9 
        </DataArray>
      </Cells>
      <PointData>
        <DataArray type="Float64" Name="u">
          0.00000000e+00 -7.33465519e+00 -1.23523750e+01 -1.98833209e+01 0.00000000e+00 -5.82232918e+00 -9.96565476e+00 -1.70897766e+01 0.00000000e+00 -3.38506978e+00 -5.64531644e+00 -1.02579194e+01 0.00000000e+00 0.00000000e+00 0.00000000e+00 0.00000000e+00 
        </DataArray>
        <DataArray type="Float64" Name="v">
          0.00000000e+00 -6.29112488e+00 -5.99658322e+00 -3.90743929e+00 0.00000000e+00 -2.89565604e+00 -2.92141324e+00 -1.99065436e+00 0.00000000e+00 -9.95309303e-01 -1.07323279e+00 -7.87904457e-01 0.00000000e+00 0.00000000e+00 0.00000000e+00 0.00000000e+00 
        </DataArray>
        <DataArray type="Float64" Name="p">
          -6.23575551e+03 -6.17552554e+03 -6.11529557e+03 -6.05506560e+03 -6.24968768e+03 -6.18961024e+03 -6.12953280e+03 -6.06945536e+03 -6.26361984e+03 -6.20369493e+03 -6.14377003e+03 -6.08384512e+03 -6.27755200e+03 -6.21777963e+03 -6.15800726e+03 -6.09823489e+03 
        </DataArray>
      </PointData>
    </Piece>
    <Piece NumberOfPoints="16" NumberOfCells="9">
      <Points>
        <DataArray type="Float64" NumberOfComponents="3" format="ascii">
          5.00000000e+00 0.00000000e+00 0.00000000e+00 
5.83333349e+00 0.00000000e+00 0.00000000e+00 
6.66666651e+00 0.00000000e+00 0.00000000e+00 
7.50000000e+00 0.00000000e+00 0.00000000e+00 
5.00000000e+00 3.33333343e-01 0.00000000e+00 
5.83333349e+00 3.33333343e-01 0.00000000e+00 
6.66666651e+00 3.33333343e-01 0.00000000e+00 
7.50000000e+00 3.33333343e-01 0.00000000e+00 
5.00000000e+00 6.66666687e-01 0.00000000e+00 
5.83333349e+00 6.66666687e-01 0.00000000e+00 
6.66666651e+00 6.66666687e-01 0.00000000e+00 
7.50000000e+00 6.66666687e-01 0.00000000e+00 
5.00000000e+00 1.00000000e+00 0.00000000e+00 
5.83333349e+00 1.00000000e+00 0.00000000e+00 
6.66666651e+00 1.00000000e+00 0.00000000e+00 
7.50000000e+00 1.00000000e+00 0.00000000e+00 

        </DataArray>
      </Points>
      <Cells>
        <DataArray type="Int32" Name="connectivity" format="ascii">
0 1 5 4
4 5 9 8
8 9 13 12
1 2 6 5
5 6 10 9
9 10 14 13
2 3 7 6
6 7 11 10
10 11 15 14

        </DataArray>
        <DataArray type="Int32" Name="offsets" format="ascii">
4 8 12 16 20 24 28 32 36 
        </DataArray>
        <DataArray type="UInt8" Name="types" format="ascii">
9 9 9 9 9 9 9 9 9 
        </DataArray>
      </Cells>
      <PointData>
        <DataArray type="Float64" Name="u">