<?xml version="1.0"?>
<VTKFile type="UnstructuredGrid" version="0.1" byte_order="LittleEndian">
  <UnstructuredGrid>
    <Piece NumberOfPoints="16" NumberOfCells="9">
      <Points>
        <DataArray type="Float64" NumberOfComponents="3" format="ascii">
          0.00000000e+00 3.00000000e+00 0.00000000e+00 
8.33333313e-01 3.00000000e+00 0.00000000e+00 
1.66666663e+00 3.00000000e+00 0.00000000e+00 
2.50000000e+00 3.00000000e+00 0.00000000e+00 
0.00000000e+00 3.33333325e+00 0.00000000e+00 
8.33333313e-01 3.33333325e+00 0.00000000e+00 
1.66666663e+00 3.33333325e+00 0.00000000e+00 
2.50000000e+00 3.33333325e+00 0.00000000e+00 
0.00000000e+00 3.66666675e+00 0.00000000e+00 
8.33333313e-01 3.66666675e+00 0.00000000e+00 
1.66666663e+00 3.66666675e+00 0.00000000e+00 
2.50000000e+00 3.66666675e+00 0.00000000e+00 
0.00000000e+00 4.00000000e+00 0.00000000e+00 
8.33333313e-01 4.00000000e+00 0.00000000e+00 
1.66666663e+00 4.00000000e+00 0.00000000e+00 
2.50000000e+00 4.00000000e+00 0.00000000e+00 

        </DataArray>
      </Points>
      <Cells>
        <DataArray type="Int32" Name="connectivity" format="ascii">
0 1 5 4
4 5 9 8
8 9 13 12
1 2 6 5
5 6 10 9
9 10 14 13
2 3 7 6
6 7 11 10
10 11 15 14

        </DataArray>
        <DataArray type="Int32" Name="offsets" format="ascii">
4 8 12 16 20 24 28 32 36 
        </DataArray>
        <DataArray type="UInt8" Name="types" format="ascii">
9 9 9 9 9 9 9 9 9 
        </DataArray>
      </Cells>
      <PointData>
        <DataArray type="Float64" Name="u">
          0.00000000e+00 0.00000000e+00 0.00000000e+00 0.00000000e+00 8.88888889e+01 8.94685168e+01 8.94973688e+01 9.10644431e+01 1.55555556e+02 1.55371976e+02 1.56259055e+02 1.55822407e+02 2.00000000e+02 1.98989498e+02 2.00361241e+02 1.98765358e+02 
        </DataArray>
        <DataArray type="Float64" Name="v">
          0.00000000e+00 0.00000000e+00 0.00000000e+00 0.00000000e+00 0.00000000e+00 -2.43066953e-01 -3.99365288e-02 -1.68726050e+00 0.00000000e+00 -2.12733334e-01 -2.39029078e-01 -8.60708768e-01 0.00000000e+00 -3.01837883e-01 -2.36194315e-01 -8.22933573e-01 
        </DataArray>
        <DataArray type="Float64" Name="p">
          -2.04979325e+03 -3.44756613e+03 -4.84533901e+03 -6.24311188e+03 -2.05985915e+03 -3.44486228e+03 -4.82986540e+03 -6.21486853e+03 -2.06992505e+03 -3.44215842e+03 -4.81439180e+03 -6.18662518e+03 -2.07999095e+03 -3.43945457e+03 -4.79891820e+03 -6.15838182e+03 
        </DataArray>
      </PointData>
    </Piece>
    <Piece NumberOfPoints="16" NumberOfCells="9">
      <Points>
        <DataArray type="Float64" NumberOfComponents="3" format="ascii">
          0.00000000e+00 4.00000000e+00 0.00000000e+00 
8.33333313e-01 4.00000000e+00 0.00000000e+00 
1.66666663e+00 4.00000000e+00 0.00000000e+00 
2.50000000e+00 4.00000000e+00 0.00000000e+00 
0.00000000e+00 4.33333349e+00 0.00000000e+00 
8.33333313e-01 4.33333349e+00 0.00000000e+00 
1.66666663e+00 4.33333349e+00 0.00000000e+00 
2.50000000e+00 4.33333349e+00 0.00000000e+00 
0.00000000e+00 4.66666651e+00 0.00000000e+00 
8.33333313e-01 4.66666651e+00 0.00000000e+00 
1.66666663e+00 4.66666651e+00 0.00000000e+00 
2.50000000e+00 4.66666651e+00 0.00000000e+00 
0.00000000e+00 5.00000000e+00 0.00000000e+00 
8.33333313e-01 5.00000000e+00 0.00000000e+00 
1.66666663e+00 5.00000000e+00 0.00000000e+00 
2.50000000e+00 5.00000000e+00 0.00000000e+00 

        </DataArray>
      </Points>
      <Cells>
        <DataArray type="Int32" Name="connectivity" format="ascii">
0 1 5 4
4 5 9 8
8 9 13 12
1 2 6 5
5 6 10 9
9 10 14 13
2 3 7 6
6 7 11 10
10 11 15 14

        </DataArray>
        <DataArray type="Int32" Name="offsets" format="ascii">
4 8 12 16 20 24 28 32 36 
        </DataArray>
        <DataArray type="UInt8" Name="types" format="ascii">
9 9 9 9 9 9 9 9 9 
        </DataArray>
      </Cells>
      <PointData>
        <DataArray type="Float64" Name="u">
          2.00000000e+02 1.98989498e+02 2.00361241e+02 1.98765358e+02 2.22222222e+02 2.20967228e+02 2.22202029e+02 2.20602911e+02 2.22222222e+02 2.20967228e+02 2.22202029e+02 2.20602911e+02 2.00000000e+02 1.98989498e+02 2.00361241e+02 1.98765358e+02 
        </DataArray>
        <DataArray type="Float64" Name="v">
          0.00000000e+00 -3.01837883e-01 -2.36194315e-01 -8.22933573e-01 0.00000000e+00 -1.30773785e-02 -1.01982594e-01 3.75052695e-02 0.00000000e+00 1.30773782e-02 1.01982593e-01 -3.75052704e-02 0.00000000e+00 3.01837883e-01 2.36194314e-01 8.22933572e-01 
        </DataArray>
        <DataArray type="Float64" Name="p">
          -2.05883145e+03 -3.42556185e+03 -4.79229225e+03 -6.15902266e+03 -2.05883145e+03 -3.42556185e+03 -4.79229225e+03 -6.15902266e+03 -2.05883145e+03 -3.42556185e+03 -4.79229225e+03 -6.15902266e+03 -2.05883145e+03 -3.42556185e+03 -4.79229225e+03 -6.15902266e+03 
        </DataArray>
      </PointData>
    </Piece>
    <Piece NumberOfPoints="16" NumberOfCells="9">
      <Points>
        <DataArray type="Float64" NumberOfComponents="3" format="ascii">
          0.00000000e+00 5.00000000e+00 0.00000000e+00 
8.33333313e-01 5.00000000e+00 0.00000000e+00 
1.66666663e+00 5.00000000e+00 0.00000000e+00 
2.50000000e+00 5.00000000e+00 0.00000000e+00 
0.00000000e+00 5.33333349e+00 0.00000000e+00 
8.33333313e-01 5.33333349e+00 0.00000000e+00 
1.66666663e+00 5.33333349e+00 0.00000000e+00 
2.50000000e+00 5.33333349e+00 0.00000000e+00 
0.00000000e+00 5.66666651e+00 0.00000000e+00 
8.33333313e-01 5.66666651e+00 0.00000000e+00 
1.66666663e+00 5.66666651e+00 0.00000000e+00 
2.50000000e+00 5.66666651e+00 0.00000000e+00 
0.00000000e+00 6.00000000e+00 0.00000000e+00 
8.33333313e-01 6.00000000e+00 0.00000000e+00 
1.66666663e+00 6.00000000e+00 0.00000000e+00 
2.50000000e+00 6.00000000e+00 0.00000000e+00 

        </DataArray>
      </Points>
      <Cells>
        <DataArray type="Int32" Name="connectivity" format="ascii">
0 1 5 4
4 5 9 8
8 9 13 12
1 2 6 5
5 6 10 9
9 10 14 13
2 3 7 6
6 7 11 10
10 11 15 14

        </DataArray>
        <DataArray type="Int32" Name="offsets" format="ascii">
4 8 12 16 20 24 28 32 36 
        </DataArray>
        <DataArray type="UInt8" Name="types" format="ascii">
9 9 9 9 9 9 9 9 9 
        </DataArray>
      </Cells>
      <PointData>
        <DataArray type="Float64" Name="u">
          2.00000000e+02 1.98989498e+02 2.00361241e+02 1.98765358e+02 1.55555556e+02 1.55371976e+02 1.56259055e+02 1.55822407e+02 8.88888889e+01 8.94685168e+01 8.94973688e+01 9.10644431e+01 0.00000000e+00 0.00000000e+00 0.00000000e+00 0.00000000e+00 
        </DataArray>
        <DataArray type="Float64" Name="v">
          0.00000000e+00 3.01837883e-01 2.36194314e-01 8.22933572e-01 0.00000000e+00 2.12733334e-01 2.39029078e-01 8.60708768e-01 0.00000000e+00 2.43066953e-01 3.99365286e-02 1.68726050e+00 0.00000000e+00 0.00000000e+00 0.00000000e+00 0.00000000e+00 
        </DataArray>
        <DataArray type="Float64" Name="p">
          -2.07999095e+03 -3.43945457e+03 -4.79891820e+03 -6.15838182e+03 -2.06992505e+03 -3.44215842e+03 -4.81439180e+03 -6.18662518e+03 -2.05985915e+03 -3.44486228e+03 -4.82986540e+03 -6.21486853e+03 -2.04979325e+03 -3.44756613e+03 -4.84533901e+03 -6.24311188e+03 
        </DataArray>
      </PointData>
    </Piece>
    <Piece NumberOfPoints="16" NumberOfCells="9">
      <Points>
        <DataArray type="Float64" NumberOfComponents="3" format="ascii">
          2.50000000e+00 0.00000000e+00 0.00000000e+00 
3.33333325e+00 0.00000000e+00 0.00000000e+00 
4.16666651e+00 0.00000000e+00 0.00000000e+00 
5.00000000e+00 0.00000000e+00 0.00000000e+00 
2.50000000e+00 3.33333343e-01 0.00000000e+00 
3.33333325e+00 3.33333343e-01 0.00000000e+00 
4.16666651e+00 3.33333343e-01 0.00000000e+00 
5.00000000e+00 3.33333343e-01 0.00000000e+00 
2.50000000e+00 6.66666687e-01 0.00000000e+00 
3.33333325e+00 6.66666687e-01 0.00000000e+00 
4.16666651e+00 6.66666687e-01 0.00000000e+00 
5.00000000e+00 6.66666687e-01 0.00000000e+00 
2.50000000e+00 1.00000000e+00 0.00000000e+00 
3.33333325e+00 1.00000000e+00 0.00000000e+00 
4.16666651e+00 1.00000000e+00 0.00000000e+00 
5.00000000e+00 1.00000000e+00 0.00000000e+00 

        </DataArray>
      </Points>
      <Cells>
        <DataArray type="Int32" Name="connectivity" format="ascii">
0 1 5 4
4 5 9 8
8 9 13 12
1 2 6 5
5 6 10 9
9 10 14 13
2 3 7 6
6 7 11 10
10 11 15 14

        </DataArray>
        <DataArray type="Int32" Name="offsets" format="ascii">
4 8 12 16 20 24 28 32 36 
        </DataArray>
        <DataArray type="UInt8" Name="types" format="ascii">
9 9 9 9 9 9 9 9 9 
        </DataArray>
      </Cells>
      <PointData>
        <DataArray type="Float64" Name="u">
          0.00000000e+00 0.00000000e+00 0.00000000e+00 0.00000000e+00 0.00000000e+00 -3.02013411e+00 -5.09146152e+00 -9.15151663e+00 0.00000000e+00 -5.25750301e+00 -9.09840408e+00 -1.53950899e+01 0.00000000e+00 -6.74210916e+00 -1.15148989e+01 -1.84139634e+01 
        </DataArray>
        <DataArray type="Float64" Name="v">
          0.00000000e+00 0.00000000e+00 0.00000000e+00 0.00000000e+00 0.00000000e+00 8.86194586e-01 9.50765869e-01 6.55102113e-01 0.00000000e+00 2.62008648e+00 2.61842003e+00 1.74427416e+00 0.00000000e+00 5.73420773e+00 5.36833015e+00 3.51389960e+00 
        </DataArray>
        <DataArray type="Float64" Name="p">
          -5.82718195e+03 -5.77738129e+03 -5.72758063e+03 -5.67777997e+03 -5.81378577e+03 -5.76388023e+03 -5.71397468e+03 -5.66406914e+03 -5.80038959e+03 -5.75037916e+03 -5.70036874e+03 -5.65035831e+03 -5.78699342e+03 -5.73687810e+03 -5.68676279e+03 -5.63664747e+03 
        </DataArray>
      </PointData>
    </Piece>
    <Piece NumberOfPoints="16" NumberOfCells="9">
      <Points>
        <DataArray type="Float64" NumberOfComponents="3" format="ascii">
          2.50000000e+00 1.00000000e+00 0.00000000e+00 
3.33333325e+00 1.00000000e+00 0.00000000e+00 
4.16666651e+00 1.00000000e+00 0.00000000e+00 
5.00000000e+00 1.00000000e+00 0.00000000e+00 
2.50000000e+00 1.33333337e+00 0.00000000e+00 
3.33333325e+00 1.33333337e+00 0.00000000e+00 
4.16666651e+00 1.33333337e+00 0.00000000e+00 
5.00000000e+00 1.33333337e+00 0.00000000e+00 
2.50000000e+00 1.66666663e+00 0.00000000e+00 
3.33333325e+00 1.66666663e+00 0.00000000e+00 
4.16666651e+00 1.66666663e+00 0.00000000e+00 
5.00000000e+00 1.66666663e+00 0.00000000e+00 
2.50000000e+00 2.00000000e+00 0.00000000e+00 
3.33333325e+00 2.00000000e+00 0.00000000e+00 
4.16666651e+00 2.00000000e+00 0.00000000e+00 
5.00000000e+00 2.00000000e+00 0.00000000e+00 

        </DataArray>
      </Points>
      <Cells>
        <DataArray type="Int32" Name="connectivity" format="ascii">
0 1 5 4
4 5 9 8
8 9 13 12
1 2 6 5
5 6 10 9
9 10 14 13
2 3 7 6
6 7 11 10
10 11 15 14

        </DataArray>
        <DataArray type="Int32" Name="offsets" format="ascii">
4 8 12 16 20 24 28 32 36 
        </DataArray>
        <DataArray type="UInt8" Name="types" format="ascii">
9 9 9 9 9 9 9 9 9 
        </DataArray>
      </Cells>
      <PointData>
        <DataArray type="Float64" Name="u">
          0.00000000e+00 -6.74210916e+00 -1.15148989e+01 -1.84139634e+01 0.00000000e+00 -7.46847478e+00 -1.19806073e+01 -1.80087879e+01 0.00000000e+00 -7.19321390e+00 -1.00514957e+01 -1.35611751e+01 0.00000000e+00 -5.34123790e+00 -5.01227560e+00 -4.35658697e+00 
        </DataArray>
        <DataArray type="Float64" Name="v">
          0.00000000e+00 5.73420773e+00 5.36833015e+00 3.51389960e+00 0.00000000e+00 9.48657712e+00 8.16390622e+00 4.84861657e+00 0.00000000e+00 1.23735061e+01 1.00737708e+01 5.26100950e+00 0.00000000e+00 1.53655970e+01 1.11153527e+01 4.37083996e+00 
        </DataArray>
        <DataArray type="Float64" Name="p">
          -5.77137765e+03 -5.73060461e+03 -5.68983157e+03 -5.64905853e+03 -5.86434105e+03 -5.80832507e+03 -5.75230910e+03 -5.69629312e+03 -5.95730445e+03 -5.88604554e+03 -5.81478662e+03 -5.74352771e+03 -6.05026785e+03 -5.96376600e+03 -5.87726415e+03 -5.79076230e+03 
        </DataArray>
      </PointData>
    </Piece>
    <Piece NumberOfPoints="16" NumberOfCells="9">
      <Points>
        <DataArray type="Float64" NumberOfComponents="3" format="ascii">
          2.50000000e+00 2.00000000e+00 0.00000000e+00 
3.33333325e+00 2.00000000e+00 0.00000000e+00 
4.16666651e+00 2.00000000e+00 0.00000000e+00 
5.00000000e+00 2.00000000e+00 0.00000000e+00 
2.50000000e+00 2.33333325e+00 0.00000000e+00 
3.33333325e+00 2.33333325e+00 0.00000000e+00 
4.16666651e+00 2.33333325e+00 0.00000000e+00 
5.00000000e+00 2.33333325e+00 0.00000000e+00 
2.50000000e+00 2.66666675e+00 0.00000000e+00 
3.33333325e+00 2.66666675e+00 0.00000000e+00 
4.16666651e+00 2.66666675e+00 0.00000000e+00 
5.00000000e+00 2.66666675e+00 0.00000000e+00 
2.50000000e+00 3.00000000e+00 0.00000000e+00 
3.33333325e+00 3.00000000e+00 0.00000000e+00 
4.16666651e+00 3.00000000e+00 0.00000000e+00 
5.00000000e+00 3.00000000e+00 0.00000000e+00 

        </DataArray>
      </Points>
      <Cells>
        <DataArray type="Int32" Name="connectivity" format="ascii">
0 1 5 4
4 5 9 8
8 9 13 12
1 2 6 5
5 6 10 9
9 10 14 13
2 3 7 6
6 7 11 10
10 11 15 14

        </DataArray>
        <DataArray type="Int32" Name="offsets" format="ascii">
4 8 12 16 20 24 28 32 36 
        </DataArray>
        <DataArray type="UInt8" Name="types" format="ascii">
9 9 9 9 9 9 9 9 9 
        </DataArray>
      </Cells>
      <PointData>
        <DataArray type="Float64" Name="u">
          0.00000000e+00 -5.34123790e+00 -5.01227560e+00 -4.35658697e+00 0.00000000e+00 -6.69521185e-01 3.82154889e+00 1.19550429e+01 0.00000000e+00 1.24062899e+01 2.07767281e+01 3.55759703e+01 0.00000000e+00 4.65314739e+01 5.20690119e+01 6.91730431e+01 
        </DataArray>
        <DataArray type="Float64" Name="v">
          0.00000000e+00 1.53655970e+01 1.11153527e+01 4.37083996e+00 0.00000000e+00 1.68199786e+01 9.12427768e+00 1.17708808e+00 0.00000000e+00 1.33374447e+01 6.17416242e+00 -1.44675281e+00 0.00000000e+00 2.09873264e+00 -6.98260900e-01 -3.35152448e+00 
        </DataArray>
        <DataArray type="Float64" Name="p">
          -6.01278204e+03 -5.97448317e+03 -5.93618429e+03 -5.89788542e+03 -6.34770977e+03 -6.14032209e+03 -5.93293442e+03 -5.72554675e+03 -6.68263749e+03 -6.30616102e+03 -5.92968455e+03 -5.55320808e+03 -7.01756521e+03 -6.47199995e+03 -5.92643468e+03 -5.38086942e+03 
        </DataArray>
      </PointData>
    </Piece>
    <Piece NumberOfPoints="16" NumberOfCells="9">
      <Points>
        <DataArray type="Float64" NumberOfComponents="3" format="ascii">
          2.50000000e+00 3.00000000e+00 0.00000000e+00 
3.33333325e+00 3.00000000e+00 0.00000000e+00 
4.16666651e+00 3.00000000e+00 0.00000000e+00 
5.00000000e+00 3.00000000e+00 0.00000000e+00 
2.50000000e+00 3.33333325e+00 0.00000000e+00 
3.33333325e+00 3.33333325e+00 0.00000000e+00 
4.16666651e+00 3.33333325e+00 0.00000000e+00 
5.00000000e+00 3.33333325e+00 0.00000000e+00 
2.50000000e+00 3.66666675e+00 0.00000000e+00 
3.33333325e+00 3.66666675e+00 0.00000000e+00 
4.16666651e+00 3.66666675e+00 0.00000000e+00 
5.00000000e+00 3.66666675e+00 0.00000000e+00 
2.50000000e+00 4.00000000e+00 0.00000000e+00 
3.33333325e+00 4.00000000e+00 0.00000000e+00 
4.16666651e+00 4.00000000e+00 0.00000000e+00 
5.00000000e+00 4.00000000e+00 0.00000000e+00 

        </DataArray>
      </Points>
      <Cells>
        <DataArray type="Int32" Name="connectivity" format="ascii">
0 1 5 4
4 5 9 8
8 9 13 12
1 2 6 5
5 6 10 9
9 10 14 13
2 3 7 6
6 7 11 10
10 11 15 14

        </DataArray>
        <DataArray type="Int32" Name="offsets" format="ascii">
4 8 12 16 20 24 28 32 36 
        </DataArray>
        <DataArray type="UInt8" Name="types" format="ascii">
9 9 9 9 9 9 9 9 9 
        </DataArray>
      </Cells>
      <PointData>
        <DataArray type="Float64" Name="u">
          0.00000000e+00 4.65314739e+01 5.20690119e+01 6.91730431e+01 9.10644431e+01 9.60140455e+01 1.00564779e+02 1.06169648e+02 1.55822407e+02 1.51259543e+02 1.51107970e+02 1.48371760e+02 1.98765358e+02 1.91644709e+02 1.90279171e+02 1.82544571e+02 
        </DataArray>
        <DataArray type="Float64" Name="v">
          0.00000000e+00 2.09873264e+00 -6.98260900e-01 -3.35152448e+00 -1.68726050e+00 -6.60681013e+00 -5.05736477e+00 -2.38482777e+00 -8.60708768e-01 -6.90381487e+00 -6.70133608e+00 -2.97790854e+00 -8.22933573e-01 -4.50736212e+00 -4.23829693e+00 -2.45657008e+00 
        </DataArray>
        <DataArray type="Float64" Name="p">
          -7.08285346e+03 -6.44373944e+03 -5.80462542e+03 -5.16551141e+03 -6.58731701e+03 -6.20583000e+03 -5.82434300e+03 -5.44285599e+03 -6.09178057e+03 -5.96792057e+03 -5.84406057e+03 -5.72020057e+03 -5.59624412e+03 -5.73001113e+03 -5.86377814e+03 -5.99754515e+03 
        </DataArray>
      </PointData>
    </Piece>
    <Piece NumberOfPoints="16" NumberOfCells="9">
      <Points>
        <DataArray type="Float64" NumberOfComponents="3" format="ascii">
          2.50000000e+00 4.00000000e+00 0.00000000e+00 
3.33333325e+00 4.00000000e+00 0.00000000e+00 
4.16666651e+00 4.00000000e+00 0.00000000e+00 
5.00000000e+00 4.00000000e+00 0.00000000e+00 
2.50000000e+00 4.33333349e+00 0.00000000e+00 
3.33333325e+00 4.33333349e+00 0.00000000e+00 
4.16666651e+00 4.33333349e+00 0.00000000e+00 
5.00000000e+00 4.33333349e+00 0.00000000e+00 
2.50000000e+00 4.66666651e+00 0.00000000e+00 
3.33333325e+00 4.66666651e+00 0.00000000e+00 
4.16666651e+00 4.66666651e+00 0.00000000e+00 
5.00000000e+00 4.66666651e+00 0.00000000e+00 
2.50000000e+00 5.00000000e+00 0.00000000e+00 
3.33333325e+00 5.00000000e+00 0.00000000e+00 
4.16666651e+00 5.00000000e+00 0.00000000e+00 
5.00000000e+00 5.00000000e+00 0.00000000e+00 

        </DataArray>
      </Points>
      <Cells>
        <DataArray type="Int32" Name="connectivity" format="ascii">
0 1 5 4
4 5 9 8
8 9 13 12
1 2 6 5
5 6 10 9
9 10 14 13
2 3 7 6
6 7 11 10
10 11 15 14

        </DataArray>
        <DataArray type="Int32" Name="offsets" format="ascii">
4 8 12 16 20 24 28 32 36 
        </DataArray>
        <DataArray type="UInt8" Name="types" format="ascii">
9 9 9 9 9 9 9 9 9 
        </DataArray>
      </Cells>
      <PointData>
        <DataArray type="Float64" Name="u">
          1.98765358e+02 1.91644709e+02 1.90279171e+02 1.82544571e+02 2.20602911e+02 2.12540687e+02 2.10063328e+02 2.01412773e+02 2.20602911e+02 2.12540687e+02 2.10063328e+02 2.01412773e+02 1.98765358e+02 1.91644709e+02 1.90279171e+02 1.82544571e+02 
        </DataArray>
        <DataArray type="Float64" Name="v">
          -8.22933573e-01 -4.50736212e+00 -4.23829693e+00 -2.45657008e+00 3.75052695e-02 -5.43174469e-01 -1.25736164e+00 -1.16883455e+00 -3.75052704e-02 5.43174468e-01 1.25736164e+00 1.16883455e+00 8.22933572e-01 4.50736211e+00 4.23829693e+00 2.45657008e+00 
        </DataArray>
        <DataArray type="Float64" Name="p">
          -5.42953288e+03 -5.65124588e+03 -5.87295888e+03 -6.09467187e+03 -5.42953288e+03 -5.65124588e+03 -5.87295888e+03 -6.09467187e+03 -5.42953288e+03 -5.65124588e+03 -5.87295887e+03 -6.09467187e+03 -5.42953288e+03 -5.65124588e+03 -5.87295887e+03 -6.09467187e+03 
        </DataArray>
      </PointData>
    </Piece>
    <Piece NumberOfPoints="16" NumberOfCells="9">
      <Points>
        <DataArray type="Float64" NumberOfComponents="3" format="ascii">
          2.50000000e+00 5.00000000e+00 0.00000000e+00 
3.33333325e+00 5.00000000e+00 0.00000000e+00 
4.16666651e+00 5.00000000e+00 0.00000000e+00 
5.00000000e+00 5.00000000e+00 0.00000000e+00 
2.50000000e+00 5.33333349e+00 0.00000000e+00 
3.33333325e+00 5.33333349e+00 0.00000000e+00 
4.16666651e+00 5.33333349e+00 0.00000000e+00 
5.00000000e+00 5.33333349e+00 0.00000000e+00 
2.50000000e+00 5.66666651e+00 0.00000000e+00 
3.33333325e+00 5.66666651e+00 0.00000000e+00 
4.16666651e+00 5.66666651e+00 0.00000000e+00 
5.00000000e+00 5.66666651e+00 0.00000000e+00 
2.50000000e+00 6.00000000e+00 0.00000000e+00 
3.33333325e+00 6.00000000e+00 0.00000000e+00 
4.16666651e+00 6.00000000e+00 0.00000000e+00 
5.00000000e+00 6.00000000e+00 0.00000000e+00 

        </DataArray>
      </Points>
      <Cells>
        <DataArray type="Int32" Name="connectivity" format="ascii">
0 1 5 4
4 5 9 8
8 9 13 12
1 2 6 5
5 6 10 9
9 10 14 13
2 3 7 6
6 7 11 10
10 11 15 14

        </DataArray>
        <DataArray type="Int32" Name="offsets" format="ascii">
4 8 12 16 20 24 28 32 36 
        </DataArray>
        <DataArray type="UInt8" Name="types" format="ascii">
9 9 9 9 9 9 9 9 9 
        </DataArray>
      </Cells>
      <PointData>
        <DataArray type="Float64" Name="u">
          1.98765358e+02 1.91644709e+02 1.90279171e+02 1.82544571e+02 1.55822407e+02 1.51259543e+02 1.51107970e+02 1.48371760e+02 9.10644431e+01 9.60140455e+01 1.00564779e+02 1.06169648e+02 0.00000000e+00 4.65314739e+01 5.20690119e+01 6.91730431e+01 
        </DataArray>
        <DataArray type="Float64" Name="v">
          8.22933572e-01 4.50736211e+00 4.23829693e+00 2.45657008e+00 8.60708768e-01 6.90381487e+00 6.70133608e+00 2.97790854e+00 1.68726050e+00 6.60681013e+00 5.05736477e+00 2.38482777e+00 0.00000000e+00 -2.09873264e+00 6.98260899e-01 3.35152448e+00 
        </DataArray>
        <DataArray type="Float64" Name="p">
          -5.59624412e+03 -5.73001113e+03 -5.86377814e+03 -5.99754515e+03 -6.09178057e+03 -5.96792057e+03 -5.84406057e+03 -5.72020057e+03 -6.58731701e+03 -6.20583000e+03 -5.82434300e+03 -5.44285599e+03 -7.08285346e+03 -6.44373944e+03 -5.80462542e+03 -5.16551141e+03 
        </DataArray>
      </PointData>
    </Piece>
    <Piece NumberOfPoints="16" NumberOfCells="9">
      <Points>
        <DataArray type="Float64" NumberOfComponents="3" format="ascii">
          2.50000000e+00 6.00000000e+00 0.00000000e+00 
3.33333325e+00 6.00000000e+00 0.00000000e+00 
4.16666651e+00 6.00000000e+00 0.00000000e+00 
5.00000000e+00 6.00000000e+00 0.00000000e+00 
2.50000000e+00 6.33333349e+00 0.00000000e+00 
3.33333325e+00 6.33333349e+00 0.00000000e+00 
4.16666651e+00 6.33333349e+00 0.00000000e+00 
5.00000000e+00 6.33333349e+00 0.00000000e+00 
2.50000000e+00 6.66666651e+00 0.00000000e+00 
3.33333325e+00 6.66666651e+00 0.00000000e+00 
4.16666651e+00 6.66666651e+00 0.00000000e+00 
5.00000000e+00 6.66666651e+00 0.00000000e+00 
2.50000000e+00 7.00000000e+00 0.00000000e+00 
3.33333325e+00 7.00000000e+00 0.00000000e+00 
4.16666651e+00 7.00000000e+00 0.00000000e+00 
5.00000000e+00 7.00000000e+00 0.00000000e+00 

        </DataArray>
      </Points>
      <Cells>
        <DataArray type="Int32" Name="connectivity" format="ascii">
0 1 5 4
4 5 9 8
8 9 13 12
1 2 6 5
5 6 10 9
9 10 14 13
2 3 7 6
6 7 11 10
10 11 15 14

        </DataArray>
        <DataArray type="Int32" Name="offsets" format="ascii">
4 8 12 16 20 24 28 32 36 
        </DataArray>
        <DataArray type="UInt8" Name="types" format="ascii">
9 9 9 9 9 9 9 9 9 
        </DataArray>
      </Cells>
      <PointData>
        <DataArray type="Float64" Name="u">
          0.00000000e+00 4.65314739e+01 5.20690119e+01 6.91730431e+01 0.00000000e+00 1.24062899e+01 2.07767281e+01 3.55759703e+01 0.00000000e+00 -6.69521185e-01 3.82154889e+00 1.19550429e+01 0.00000000e+00 -5.34123790e+00 -5.01227560e+00 -4.35658697e+00 
        </DataArray>
        <DataArray type="Float64" Name="v">
          0.00000000e+00 -2.09873264e+00 6.98260899e-01 3.35152448e+00 0.00000000e+00 -1.33374447e+01 -6.17416243e+00 1.44675281e+00 0.00000000e+00 -1.68199786e+01 -9.12427768e+00 -1.17708808e+00 0.00000000e+00 -1.53655970e+01 -1.11153527e+01 -4.37083996e+00 
        </DataArray>
        <DataArray type="Float64" Name="p">
          -7.01756521e+03 -6.47199995e+03 -5.92643468e+03 -5.38086942e+03 -6.68263749e+03 -6.30616102e+03 -5.92968455e+03 -5.55320808e+03 -6.34770977e+03 -6.14032209e+03 -5.93293442e+03 -5.72554675e+03 -6.01278204e+03 -5.97448317e+03 -5.93618429e+03 -5.89788542e+03 
        </DataArray>
      </PointData>
    </Piece>
    <Piece NumberOfPoints="16" NumberOfCells="9">
      <Points>
        <DataArray type="Float64" NumberOfComponents="3" format="ascii">
          2.50000000e+00 7.00000000e+00 0.00000000e+00 
3.33333325e+00 7.00000000e+00 0.00000000e+00 
4.16666651e+00 7.00000000e+00 0.00000000e+00 
5.00000000e+00 7.00000000e+00 0.00000000e+00 
2.50000000e+00 7.33333349e+00 0.00000000e+00 
3.33333325e+00 7.33333349e+00 0.00000000e+00 
4.16666651e+00 7.33333349e+00 0.00000000e+00 
5.00000000e+00 7.33333349e+00 0.00000000e+00 
2.50000000e+00 7.66666651e+00 0.00000000e+00 
3.33333325e+00 7.66666651e+00 0.00000000e+00 
4.16666651e+00 7.66666651e+00 0.00000000e+00 
5.00000000e+00 7.66666651e+00 0.00000000e+00 
2.50000000e+00 8.00000000e+00 0.00000000e+00 
3.33333325e+00 8.00000000e+00 0.00000000e+00 
4.16666651e+00 8.00000000e+00 0.00000000e+00 
5.00000000e+00 8.00000000e+00 0.00000000e+00 

        </DataArray>
      </Points>
      <Cells>
        <DataArray type="Int32" Name="connectivity" format="ascii">
0 1 5 4
4 5 9 8
8 9 13 12
1 2 6 5
5 6 10 9
9 10 14 13
2 3 7 6
6 7 11 10
10 11 15 14

        </DataArray>
        <DataArray type="Int32" Name="offsets" format="ascii">
4 8 12 16 20 24 28 32 36 
        </DataArray>
        <DataArray type="UInt8" Name="types" format="ascii">
9 9 9 9 9 9 9 9 9 
        </DataArray>
      </Cells>
      <PointData>
        <DataArray type="Float64" Name="u">
          0.00000000e+00 -5.34123790e+00 -5.01227560e+00 -4.35658697e+00 0.00000000e+00 -7.19321390e+00 -1.00514957e+01 -1.35611751e+01 0.00000000e+00 -7.46847478e+00 -1.19806073e+01 -1.80087879e+01 0.00000000e+00 -6.74210916e+00 -1.15148989e+01 -1.84139634e+01 
        </DataArray>
        <DataArray type="Float64" Name="v">
          0.00000000e+00 -1.53655970e+01 -1.11153527e+01 -4.37083996e+00 0.00000000e+00 -1.23735061e+01 -1.00737708e+01 -5.26100950e+00 0.00000000e+00 -9.48657712e+00 -8.16390622e+00 -4.84861657e+00 0.00000000e+00 -5.73420773e+00 -5.36833015e+00 -3.51389960e+00 
        </DataArray>
        <DataArray type="Float64" Name="p">
          -6.05026785e+03 -5.96376600e+03 -5.87726415e+03 -5.79076230e+03 -5.95730445e+03 -5.88604554e+03 -5.81478662e+03 -5.74352771e+03 -5.86434105e+03 -5.80832507e+03 -5.75230910e+03 -5.69629312e+03 -5.77137765e+03 -5.73060461e+03 -5.68983157e+03 -5.64905853e+03 
        </DataArray>
      </PointData>
    </Piece>
    <Piece NumberOfPoints="16" NumberOfCells="9">
      <Points>
        <DataArray type="Float64" NumberOfComponents="3" format="ascii">
          2.50000000e+00 8.00000000e+00 0.00000000e+00 
3.33333325e+00 8.00000000e+00 0.00000000e+00 
4.16666651e+00 8.00000000e+00 0.00000000e+00 
5.00000000e+00 8.00000000e+00 0.00000000e+00 
2.50000000e+00 8.33333302e+00 0.00000000e+00 
3.33333325e+00 8.33333302e+00 0.00000000e+00 
4.16666651e+00 8.33333302e+00 0.00000000e+00 
5.00000000e+00 8.33333302e+00 0.00000000e+00 
2.50000000e+00 8.66666698e+00 0.00000000e+00 
3.33333325e+00 8.66666698e+00 0.00000000e+00 
4.16666651e+00 8.66666698e+00 0.00000000e+00 
5.00000000e+00 8.66666698e+00 0.00000000e+00 
2.50000000e+00 9.00000000e+00 0.00000000e+00 
3.33333325e+00 9.00000000e+00 0.00000000e+00 
4.16666651e+00 9.00000000e+00 0.00000000e+00 
5.00000000e+00 9.00000000e+00 0.00000000e+00 

        </DataArray>
      </Points>
      <Cells>
        <DataArray type="Int32" Name="connectivity" format="ascii">
0 1 5 4
4 5 9 8
8 9 13 12
1 2 6 5
5 6 10 9
9 10 14 13
2 3 7 6
6 7 11 10
10 11 15 14

        </DataArray>
        <DataArray type="Int32" Name="offsets" format="ascii">
4 8 12 16 20 24 28 32 36 
        </DataArray>
        <DataArray type="UInt8" Name="types" format="ascii">
9 9 9 9 9 9 9 9 9 
        </DataArray>
      </Cells>
      <PointData>
        <DataArray type="Float64" Name="u">
          0.00000000e+00 -6.74210916e+00 -1.15148989e+01 -1.84139634e+01 0.00000000e+00 -5.25750301e+00 -9.09840407e+00 -1.53950899e+01 0.00000000e+00 -3.02013411e+00 -5.09146152e+00 -9.15151663e+00 0.00000000e+00 0.00000000e+00 0.00000000e+00 0.00000000e+00 
        </DataArray>
        <DataArray type="Float64" Name="v">
          0.00000000e+00 -5.73420773e+00 -5.36833015e+00 -3.51389960e+00 0.00000000e+00 -2.62008648e+00 -2.61842003e+00 -1.74427416e+00 0.00000000e+00 -8.86194586e-01 -9.50765869e-01 -6.55102113e-01 0.00000000e+00 0.00000000e+00 0.00000000e+00 0.00000000e+00 
        </DataArray>
        <DataArray type="Float64" Name="p">
          -5.78699342e+03 -5.73687810e+03 -5.68676279e+03 -5.63664747e+03 -5.80038959e+03 -5.75037916e+03 -5.70036874e+03 -5.65035831e+03 -5.81378577e+03 -5.76388023e+03 -5.71397468e+03 -5.66406914e+03 -5.82718195e+03 -5.77738129e+03 -5.72758063e+03 -5.67777997e+03 
        </DataArray>
      </PointData>
    </Piece>
    <Piece NumberOfPoints="16" NumberOfCells="9">
      <Points>
        <DataArray type="Float64" NumberOfComponents="3" format="ascii">
          5.00000000e+00 0.00000000e+00 0.00000000e+00 
5.83333349e+00 0.00000000e+00 0.00000000e+00 
6.66666651e+00 0.00000000e+00 0.00000000e+00 
7.50000000e+00 0.00000000e+00 0.00000000e+00 
5.00000000e+00 3.33333343e-01 0.00000000e+00 
5.83333349e+00 3.33333343e-01 0.00000000e+00 
6.66666651e+00 3.33333343e-01 0.00000000e+00 
7.50000000e+00 3.33333343e-01 0.00000000e+00 
5.00000000e+00 6.66666687e-01 0.00000000e+00 
5.83333349e+00 6.66666687e-01 0.00000000e+00 
6.66666651e+00 6.66666687e-01 0.00000000e+00 
7.50000000e+00 6.66666687e-01 0.00000000e+00 
5.00000000e+00 1.00000000e+00 0.00000000e+00 
5.83333349e+00 1.00000000e+00 0.00000000e+00 
6.66666651e+00 1.00000000e+00 0.00000000e+00 
7.50000000e+00 1.00000000e+00 0.00000000e+00 

        </DataArray>
      </Points>
      <Cells>
        <DataArray type="Int32" Name="connectivity" format="ascii">
0 1 5 4
4 5 9 8
8 9 13 12
1 2 6 5
5 6 10 9
9 10 14 13
2 3 7 6
6 7 11 10
10 11 15 14

        </DataArray>
        <DataArray type="Int32" Name="offsets" format="ascii">
4 8 12 16 20 24 28 32 36 
        </DataArray>
        <DataArray type="UInt8" Name="types" format="ascii">
9 9 9 9 9 9 9 9 9 
        </DataArray>
      </Cells>
      <PointData>
        <DataArray type="Float64" Name="u">