<?xml version="1.0"?>
<VTKFile type="UnstructuredGrid" version="0.1" byte_order="LittleEndian">
  <UnstructuredGrid>
    <Piece NumberOfPoints="16" NumberOfCells="9">
      <Points>
        <DataArray type="Float64" NumberOfComponents="3" format="ascii">
          0.00000000e+00 3.00000000e+00 0.00000000e+00 
8.33333313e-01 3.00000000e+00 0.00000000e+00 
1.66666663e+00 3.00000000e+00 0.00000000e+00 
2.50000000e+00 3.00000000e+00 0.00000000e+00 
0.00000000e+00 3.33333325e+00 0.00000000e+00 
8.33333313e-01 3.33333325e+00 0.00000000e+00 
1.66666663e+00 3.33333325e+00 0.00000000e+00 
2.50000000e+00 3.33333325e+00 0.00000000e+00 
0.00000000e+00 3.66666675e+00 0.00000000e+00 
8.33333313e-01 3.66666675e+00 0.00000000e+00 
1.66666663e+00 3.66666675e+00 0.00000000e+00 
2.50000000e+00 3.66666675e+00 0.00000000e+00 
0.00000000e+00 4.00000000e+00 0.00000000e+00 
8.33333313e-01 4.00000000e+00 0.00000000e+00 
1.66666663e+00 4.00000000e+00 0.00000000e+00 
2.50000000e+00 4.00000000e+00 0.00000000e+00 

        </DataArray>
      </Points>
      <Cells>
        <DataArray type="Int32" Name="connectivity" format="ascii">
0 1 5 4
4 5 9 8
8 9 13 12
1 2 6 5
5 6 10 9
9 10 14 13
2 3 7 6
6 7 11 10
10 11 15 14

        </DataArray>
        <DataArray type="Int32" Name="offsets" format="ascii">
4 8 12 16 20 24 28 32 36 
        </DataArray>
        <DataArray type="UInt8" Name="types" format="ascii">
9 9 9 9 9 9 9 9 9 
        </DataArray>
      </Cells>
      <PointData>
        <DataArray type="Float64" Name="u">
          0.00000000e+00 0.00000000e+00 0.00000000e+00 0.00000000e+00 8.88888889e+01 8.94679573e+01 8.94960127e+01 9.10573185e+01 1.55555556e+02 1.55372513e+02 1.56256938e+02 1.55821626e+02 2.00000000e+02 1.98991944e+02 2.00359530e+02 1.98769366e+02 
        </DataArray>
        <DataArray type="Float64" Name="v">
          0.00000000e+00 0.00000000e+00 0.00000000e+00 0.00000000e+00 0.00000000e+00 -2.42940852e-01 -3.94680002e-02 -1.68161259e+00 0.00000000e+00 -2.12172852e-01 -2.38553902e-01 -8.55706308e-01 0.00000000e+00 -3.01245479e-01 -2.35132062e-01 -8.20013137e-01 
        </DataArray>
        <DataArray type="Float64" Name="p">
          -2.06487448e+03 -3.45896516e+03 -4.85305585e+03 -6.24714653e+03 -2.07486379e+03 -3.45626501e+03 -4.83766623e+03 -6.21906746e+03 -2.08485310e+03 -3.45356486e+03 -4.82227662e+03 -6.19098838e+03 -2.09484241e+03 -3.45086471e+03 -4.80688701e+03 -6.16290931e+03 
        </DataArray>
      </PointData>
    </Piece>
    <Piece NumberOfPoints="16" NumberOfCells="9">
      <Points>
        <DataArray type="Float64" NumberOfComponents="3" format="ascii">
          0.00000000e+00 4.00000000e+00 0.00000000e+00 
8.33333313e-01 4.00000000e+00 0.00000000e+00 
1.66666663e+00 4.00000000e+00 0.00000000e+00 
2.50000000e+00 4.00000000e+00 0.00000000e+00 
0.00000000e+00 4.33333349e+00 0.00000000e+00 
8.33333313e-01 4.33333349e+00 0.00000000e+00 
1.66666663e+00 4.33333349e+00 0.00000000e+00 
2.50000000e+00 4.33333349e+00 0.00000000e+00 
0.00000000e+00 4.66666651e+00 0.00000000e+00 
8.33333313e-01 4.66666651e+00 0.00000000e+00 
1.66666663e+00 4.66666651e+00 0.00000000e+00 
2.50000000e+00 4.66666651e+00 0.00000000e+00 
0.00000000e+00 5.00000000e+00 0.00000000e+00 
8.33333313e-01 5.00000000e+00 0.00000000e+00 
1.66666663e+00 5.00000000e+00 0.00000000e+00 
2.50000000e+00 5.00000000e+00 0.00000000e+00 

        </DataArray>
      </Points>
      <Cells>
        <DataArray type="Int32" Name="connectivity" format="ascii">
0 1 5 4
4 5 9 8
8 9 13 12
1 2 6 5
5 6 10 9
9 10 14 13
2 3 7 6
6 7 11 10
10 11 15 14

        </DataArray>
        <DataArray type="Int32" Name="offsets" format="ascii">
4 8 12 16 20 24 28 32 36 
        </DataArray>
        <DataArray type="UInt8" Name="types" format="ascii">
9 9 9 9 9 9 9 9 9 
        </DataArray>
      </Cells>
      <PointData>
        <DataArray type="Float64" Name="u">
          2.00000000e+02 1.98991944e+02 2.00359530e+02 1.98769366e+02 2.22222222e+02 2.20970811e+02 2.22201452e+02 2.20608146e+02 2.22222222e+02 2.20970811e+02 2.22201452e+02 2.20608146e+02 2.00000000e+02 1.98991944e+02 2.00359530e+02 1.98769366e+02 
        </DataArray>
        <DataArray type="Float64" Name="v">
          0.00000000e+00 -3.01245479e-01 -2.35132062e-01 -8.20013137e-01 0.00000000e+00 -1.29227569e-02 -1.01682539e-01 3.77268844e-02 0.00000000e+00 1.29227509e-02 1.01682527e-01 -3.77269013e-02 0.00000000e+00 3.01245474e-01 2.35132053e-01 8.20013121e-01 
        </DataArray>
        <DataArray type="Float64" Name="p">
          -2.07372578e+03 -3.43702438e+03 -4.80032298e+03 -6.16362158e+03 -2.07372578e+03 -3.43702438e+03 -4.80032298e+03 -6.16362158e+03 -2.07372578e+03 -3.43702438e+03 -4.80032298e+03 -6.16362158e+03 -2.07372578e+03 -3.43702438e+03 -4.80032298e+03 -6.16362158e+03 
        </DataArray>
      </PointData>
    </Piece>
    <Piece NumberOfPoints="16" NumberOfCells="9">
      <Points>
        <DataArray type="Float64" NumberOfComponents="3" format="ascii">
          0.00000000e+00 5.00000000e+00 0.00000000e+00 
8.33333313e-01 5.00000000e+00 0.00000000e+00 
1.66666663e+00 5.00000000e+00 0.00000000e+00 
2.50000000e+00 5.00000000e+00 0.00000000e+00 
0.00000000e+00 5.33333349e+00 0.00000000e+00 
8.33333313e-01 5.33333349e+00 0.00000000e+00 
1.66666663e+00 5.33333349e+00 0.00000000e+00 
2.50000000e+00 5.33333349e+00 0.00000000e+00 
0.00000000e+00 5.66666651e+00 0.00000000e+00 
8.33333313e-01 5.66666651e+00 0.00000000e+00 
1.66666663e+00 5.66666651e+00 0.00000000e+00 
2.50000000e+00 5.66666651e+00 0.00000000e+00 
0.00000000e+00 6.00000000e+00 0.00000000e+00 
8.33333313e-01 6.00000000e+00 0.00000000e+00 
1.66666663e+00 6.00000000e+00 0.00000000e+00 
2.50000000e+00 6.00000000e+00 0.00000000e+00 

        </DataArray>
      </Points>
      <Cells>
        <DataArray type="Int32" Name="connectivity" format="ascii">
0 1 5 4
4 5 9 8
8 9 13 12
1 2 6 5
5 6 10 9
9 10 14 13
2 3 7 6
6 7 11 10
10 11 15 14

        </DataArray>
        <DataArray type="Int32" Name="offsets" format="ascii">
4 8 12 16 20 24 28 32 36 
        </DataArray>
        <DataArray type="UInt8" Name="types" format="ascii">
9 9 9 9 9 9 9 9 9 
        </DataArray>
      </Cells>
      <PointData>
        <DataArray type="Float64" Name="u">
          2.00000000e+02 1.98991944e+02 2.00359530e+02 1.98769366e+02 1.55555556e+02 1.55372513e+02 1.56256938e+02 1.55821626e+02 8.88888889e+01 8.94679573e+01 8.94960127e+01 9.10573184e+01 0.00000000e+00 0.00000000e+00 0.00000000e+00 0.00000000e+00 
        </DataArray>
        <DataArray type="Float64" Name="v">
          0.00000000e+00 3.01245474e-01 2.35132053e-01 8.20013121e-01 0.00000000e+00 2.12172850e-01 2.38553896e-01 8.55706298e-01 0.00000000e+00 2.42940850e-01 3.94679963e-02 1.68161258e+00 0.00000000e+00 0.00000000e+00 0.00000000e+00 0.00000000e+00 
        </DataArray>
        <DataArray type="Float64" Name="p">
          -2.09484241e+03 -3.45086471e+03 -4.80688701e+03 -6.16290931e+03 -2.08485310e+03 -3.45356486e+03 -4.82227662e+03 -6.19098838e+03 -2.07486379e+03 -3.45626501e+03 -4.83766623e+03 -6.21906746e+03 -2.06487448e+03 -3.45896516e+03 -4.85305584e+03 -6.24714653e+03 
        </DataArray>
      </PointData>
    </Piece>
    <Piece NumberOfPoints="16" NumberOfCells="9">
      <Points>
        <DataArray type="Float64" NumberOfComponents="3" format="ascii">
          2.50000000e+00 0.00000000e+00 0.00000000e+00 
3.33333325e+00 0.00000000e+00 0.00000000e+00 
4.16666651e+00 0.00000000e+00 0.00000000e+00 
5.00000000e+00 0.00000000e+00 0.00000000e+00 
2.50000000e+00 3.33333343e-01 0.00000000e+00 
3.33333325e+00 3.33333343e-01 0.00000000e+00 
4.16666651e+00 3.33333343e-01 0.00000000e+00 
5.00000000e+00 3.33333343e-01 0.00000000e+00 
2.50000000e+00 6.66666687e-01 0.00000000e+00 
3.33333325e+00 6.66666687e-01 0.00000000e+00 
4.16666651e+00 6.66666687e-01 0.00000000e+00 
5.00000000e+00 6.66666687e-01 0.00000000e+00 
2.50000000e+00 1.00000000e+00 0.00000000e+00 
3.33333325e+00 1.00000000e+00 0.00000000e+00 
4.16666651e+00 1.00000000e+00 0.00000000e+00 
5.00000000e+00 1.00000000e+00 0.00000000e+00 

        </DataArray>
      </Points>
      <Cells>
        <DataArray type="Int32" Name="connectivity" format="ascii">
0 1 5 4
4 5 9 8
8 9 13 12
1 2 6 5
5 6 10 9
9 10 14 13
2 3 7 6
6 7 11 10
10 11 15 14

        </DataArray>
        <DataArray type="Int32" Name="offsets" format="ascii">
4 8 12 16 20 24 28 32 36 
        </DataArray>
        <DataArray type="UInt8" Name="types" format="ascii">
9 9 9 9 9 9 9 9 9 
        </DataArray>
      </Cells>
      <PointData>
        <DataArray type="Float64" Name="u">
          0.00000000e+00 0.00000000e+00 0.00000000e+00 0.00000000e+00 0.00000000e+00 -3.01476359e+00 -5.08552485e+00 -9.14079274e+00 0.00000000e+00 -5.24958818e+00 -9.08990220e+00 -1.53813339e+01 0.00000000e+00 -6.73363147e+00 -1.15072137e+01 -1.84026821e+01 
        </DataArray>
        <DataArray type="Float64" Name="v">
          0.00000000e+00 0.00000000e+00 0.00000000e+00 0.00000000e+00 0.00000000e+00 8.84843652e-01 9.49455768e-01 6.55155970e-01 0.00000000e+00 2.61661975e+00 2.61556266e+00 1.74461039e+00 0.00000000e+00 5.72737587e+00 5.36355981e+00 3.51481776e+00 
        </DataArray>
        <DataArray type="Float64" Name="p">
          -5.83287612e+03 -5.78340678e+03 -5.73393744e+03 -5.68446810e+03 -5.81953194e+03 -5.76994879e+03 -5.72036563e+03 -5.67078248e+03 -5.80618776e+03 -5.75649079e+03 -5.70679383e+03 -5.65709686e+03 -5.79284358e+03 -5.74303280e+03 -5.69322202e+03 -5.64341124e+03 
        </DataArray>
      </PointData>
    </Piece>
    <Piece NumberOfPoints="16" NumberOfCells="9">
      <Points>
        <DataArray type="Float64" NumberOfComponents="3" format="ascii">
          2.50000000e+00 1.00000000e+00 0.00000000e+00 
3.33333325e+00 1.00000000e+00 0.00000000e+00 
4.16666651e+00 1.00000000e+00 0.00000000e+00 
5.00000000e+00 1.00000000e+00 0.00000000e+00 
2.50000000e+00 1.33333337e+00 0.00000000e+00 
3.33333325e+00 1.33333337e+00 0.00000000e+00 
4.16666651e+00 1.33333337e+00 0.00000000e+00 
5.00000000e+00 1.33333337e+00 0.00000000e+00 
2.50000000e+00 1.66666663e+00 0.00000000e+00 
3.33333325e+00 1.66666663e+00 0.00000000e+00 
4.16666651e+00 1.66666663e+00 0.00000000e+00 
5.00000000e+00 1.66666663e+00 0.00000000e+00 
2.50000000e+00 2.00000000e+00 0.00000000e+00 
3.33333325e+00 2.00000000e+00 0.00000000e+00 
4.16666651e+00 2.00000000e+00 0.00000000e+00 
5.00000000e+00 2.00000000e+00 0.00000000e+00 

        </DataArray>
      </Points>
      <Cells>
        <DataArray type="Int32" Name="connectivity" format="ascii">
0 1 5 4
4 5 9 8
8 9 13 12
1 2 6 5
5 6 10 9
9 10 14 13
2 3 7 6
6 7 11 10
10 11 15 14

        </DataArray>
        <DataArray type="Int32" Name="offsets" format="ascii">
4 8 12 16 20 24 28 32 36 
        </DataArray>
        <DataArray type="UInt8" Name="types" format="ascii">
9 9 9 9 9 9 9 9 9 
        </DataArray>
      </Cells>
      <PointData>
        <DataArray type="Float64" Name="u">
          0.00000000e+00 -6.73363147e+00 -1.15072137e+01 -1.84026821e+01 0.00000000e+00 -7.46084670e+00 -1.19764939e+01 -1.80045315e+01 0.00000000e+00 -7.18810791e+00 -1.00535072e+01 -1.35676715e+01 0.00000000e+00 -5.34115611e+00 -5.02283964e+00 -4.37662904e+00 
        </DataArray>
        <DataArray type="Float64" Name="v">
          0.00000000e+00 5.72737587e+00 5.36355981e+00 3.51481776e+00 0.00000000e+00 9.47685189e+00 8.15861566e+00 4.85138063e+00 0.00000000e+00 1.23624058e+01 1.00690747e+01 5.26652363e+00 0.00000000e+00 1.53546547e+01 1.11137876e+01 4.38066604e+00 
        </DataArray>
        <DataArray type="Float64" Name="p">
          -5.77727304e+03 -5.73676503e+03 -5.69625703e+03 -5.65574903e+03 -5.86988273e+03 -5.81422435e+03 -5.75856598e+03 -5.70290760e+03 -5.96249242e+03 -5.89168367e+03 -5.82087492e+03 -5.75006617e+03 -6.05510211e+03 -5.96914298e+03 -5.88318386e+03 -5.79722474e+03 
        </DataArray>
      </PointData>
    </Piece>
    <Piece NumberOfPoints="16" NumberOfCells="9">
      <Points>
        <DataArray type="Float64" NumberOfComponents="3" format="ascii">
          2.50000000e+00 2.00000000e+00 0.00000000e+00 
3.33333325e+00 2.00000000e+00 0.00000000e+00 
4.16666651e+00 2.00000000e+00 0.00000000e+00 
5.00000000e+00 2.00000000e+00 0.00000000e+00 
2.50000000e+00 2.33333325e+00 0.00000000e+00 
3.33333325e+00 2.33333325e+00 0.00000000e+00 
4.16666651e+00 2.33333325e+00 0.00000000e+00 
5.00000000e+00 2.33333325e+00 0.00000000e+00 
2.50000000e+00 2.66666675e+00 0.00000000e+00 
3.33333325e+00 2.66666675e+00 0.00000000e+00 
4.16666651e+00 2.66666675e+00 0.00000000e+00 
5.00000000e+00 2.66666675e+00 0.00000000e+00 
2.50000000e+00 3.00000000e+00 0.00000000e+00 
3.33333325e+00 3.00000000e+00 0.00000000e+00 
4.16666651e+00 3.00000000e+00 0.00000000e+00 
5.00000000e+00 3.00000000e+00 0.00000000e+00 

        </DataArray>
      </Points>
      <Cells>
        <DataArray type="Int32" Name="connectivity" format="ascii">
0 1 5 4
4 5 9 8
8 9 13 12
1 2 6 5
5 6 10 9
9 10 14 13
2 3 7 6
6 7 11 10
10 11 15 14

        </DataArray>
        <DataArray type="Int32" Name="offsets" format="ascii">
4 8 12 16 20 24 28 32 36 
        </DataArray>
        <DataArray type="UInt8" Name="types" format="ascii">
9 9 9 9 9 9 9 9 9 
        </DataArray>
      </Cells>
      <PointData>
        <DataArray type="Float64" Name="u">
          0.00000000e+00 -5.34115611e+00 -5.02283964e+00 -4.37662904e+00 0.00000000e+00 -6.78416103e-01 3.79958288e+00 1.19213986e+01 0.00000000e+00 1.23832507e+01 2.07421109e+01 3.55324715e+01 0.00000000e+00 4.65015403e+01 5.20346479e+01 6.91308275e+01 
        </DataArray>
        <DataArray type="Float64" Name="v">
          0.00000000e+00 1.53546547e+01 1.11137876e+01 4.38066604e+00 0.00000000e+00 1.68121918e+01 9.12691617e+00 1.19072749e+00 0.00000000e+00 1.33381383e+01 6.18389176e+00 -1.43226632e+00 0.00000000e+00 2.11136039e+00 -6.85172703e-01 -3.33889366e+00 
        </DataArray>
        <DataArray type="Float64" Name="p">
          -6.01771401e+03 -5.97985521e+03 -5.94199641e+03 -5.90413761e+03 -6.35155669e+03 -6.14515181e+03 -5.93874693e+03 -5.73234206e+03 -6.68539936e+03 -6.31044841e+03 -5.93549745e+03 -5.56054650e+03 -7.01924203e+03 -6.47574500e+03 -5.93224797e+03 -5.38875094e+03 
        </DataArray>
      </PointData>
    </Piece>
    <Piece NumberOfPoints="16" NumberOfCells="9">
      <Points>
        <DataArray type="Float64" NumberOfComponents="3" format="ascii">
          2.50000000e+00 3.00000000e+00 0.00000000e+00 
3.33333325e+00 3.00000000e+00 0.00000000e+00 
4.16666651e+00 3.00000000e+00 0.00000000e+00 
5.00000000e+00 3.00000000e+00 0.00000000e+00 
2.50000000e+00 3.33333325e+00 0.00000000e+00 
3.33333325e+00 3.33333325e+00 0.00000000e+00 
4.16666651e+00 3.33333325e+00 0.00000000e+00 
5.00000000e+00 3.33333325e+00 0.00000000e+00 
2.50000000e+00 3.66666675e+00 0.00000000e+00 
3.33333325e+00 3.66666675e+00 0.00000000e+00 
4.16666651e+00 3.66666675e+00 0.00000000e+00 
5.00000000e+00 3.66666675e+00 0.00000000e+00 
2.50000000e+00 4.00000000e+00 0.00000000e+00 
3.33333325e+00 4.00000000e+00 0.00000000e+00 
4.16666651e+00 4.00000000e+00 0.00000000e+00 
5.00000000e+00 4.00000000e+00 0.00000000e+00 

        </DataArray>
      </Points>
      <Cells>
        <DataArray type="Int32" Name="connectivity" format="ascii">
0 1 5 4
4 5 9 8
8 9 13 12
1 2 6 5
5 6 10 9
9 10 14 13
2 3 7 6
6 7 11 10
10 11 15 14

        </DataArray>
        <DataArray type="Int32" Name="offsets" format="ascii">
4 8 12 16 20 24 28 32 36 
        </DataArray>
        <DataArray type="UInt8" Name="types" format="ascii">
9 9 9 9 9 9 9 9 9 
        </DataArray>
      </Cells>
      <PointData>
        <DataArray type="Float64" Name="u">
          0.00000000e+00 4.65015403e+01 5.20346479e+01 6.91308275e+01 9.10573185e+01 9.60032137e+01 1.00550030e+02 1.06151786e+02 1.55821626e+02 1.51268563e+02 1.51119748e+02 1.48390310e+02 1.98769366e+02 1.91664060e+02 1.90306586e+02 1.82591114e+02 
        </DataArray>
        <DataArray type="Float64" Name="v">
          0.00000000e+00 2.11136039e+00 -6.85172703e-01 -3.33889366e+00 -1.68161259e+00 -6.59069794e+00 -5.04125900e+00 -2.37077284e+00 -8.55706308e-01 -6.88627392e+00 -6.68588343e+00 -2.96711908e+00 -8.20013137e-01 -4.49618120e+00 -4.22666793e+00 -2.44858177e+00 
        </DataArray>
        <DataArray type="Float64" Name="p">
          -7.08479553e+03 -6.44766660e+03 -5.81053766e+03 -5.17340872e+03 -6.59052153e+03 -6.21046026e+03 -5.83039899e+03 -5.45033771e+03 -6.09624752e+03 -5.97325392e+03 -5.85026031e+03 -5.72726671e+03 -5.60197351e+03 -5.73604757e+03 -5.87012164e+03 -6.00419570e+03 
        </DataArray>
      </PointData>
    </Piece>
    <Piece NumberOfPoints="16" NumberOfCells="9">
      <Points>
        <DataArray type="Float64" NumberOfComponents="3" format="ascii">
          2.50000000e+00 4.00000000e+00 0.00000000e+00 
3.33333325e+00 4.00000000e+00 0.00000000e+00 
4.16666651e+00 4.00000000e+00 0.00000000e+00 
5.00000000e+00 4.00000000e+00 0.00000000e+00 
2.50000000e+00 4.33333349e+00 0.00000000e+00 
3.33333325e+00 4.33333349e+00 0.00000000e+00 
4.16666651e+00 4.33333349e+00 0.00000000e+00 
5.00000000e+00 4.33333349e+00 0.00000000e+00 
2.50000000e+00 4.66666651e+00 0.00000000e+00 
3.33333325e+00 4.66666651e+00 0.00000000e+00 
4.16666651e+00 4.66666651e+00 0.00000000e+00 
5.00000000e+00 4.66666651e+00 0.00000000e+00 
2.50000000e+00 5.00000000e+00 0.00000000e+00 
3.33333325e+00 5.00000000e+00 0.00000000e+00 
4.16666651e+00 5.00000000e+00 0.00000000e+00 
5.00000000e+00 5.00000000e+00 0.00000000e+00 

        </DataArray>
      </Points>
      <Cells>
        <DataArray type="Int32" Name="connectivity" format="ascii">
0 1 5 4
4 5 9 8
8 9 13 12
1 2 6 5
5 6 10 9
9 10 14 13
2 3 7 6
6 7 11 10
10 11 15 14

        </DataArray>
        <DataArray type="Int32" Name="offsets" format="ascii">
4 8 12 16 20 24 28 32 36 
        </DataArray>
        <DataArray type="UInt8" Name="types" format="ascii">
9 9 9 9 9 9 9 9 9 
        </DataArray>
      </Cells>
      <PointData>
        <DataArray type="Float64" Name="u">
          1.98769366e+02 1.91664060e+02 1.90306586e+02 1.82591114e+02 2.20608146e+02 2.12565429e+02 2.10097227e+02 2.01469944e+02 2.20608146e+02 2.12565429e+02 2.10097227e+02 2.01469944e+02 1.98769366e+02 1.91664060e+02 1.90306586e+02 1.82591114e+02 
        </DataArray>
        <DataArray type="Float64" Name="v">
          -8.20013137e-01 -4.49618120e+00 -4.22666793e+00 -2.44858177e+00 3.77268844e-02 -5.40001429e-01 -1.25302324e+00 -1.16592535e+00 -3.77269013e-02 5.40001403e-01 1.25302320e+00 1.16592531e+00 8.20013121e-01 4.49618118e+00 4.22666790e+00 2.44858173e+00 
        </DataArray>
        <DataArray type="Float64" Name="p">
          -5.43566838e+03 -5.65747944e+03 -5.87929050e+03 -6.10110156e+03 -5.43566838e+03 -5.65747944e+03 -5.87929050e+03 -6.10110155e+03 -5.43566838e+03 -5.65747943e+03 -5.87929049e+03 -6.10110155e+03 -5.43566838e+03 -5.65747943e+03 -5.87929049e+03 -6.10110155e+03 
        </DataArray>
      </PointData>
    </Piece>
    <Piece NumberOfPoints="16" NumberOfCells="9">
      <Points>
        <DataArray type="Float64" NumberOfComponents="3" format="ascii">
          2.50000000e+00 5.00000000e+00 0.00000000e+00 
3.33333325e+00 5.00000000e+00 0.00000000e+00 
4.16666651e+00 5.00000000e+00 0.00000000e+00 
5.00000000e+00 5.00000000e+00 0.00000000e+00 
2.50000000e+00 5.33333349e+00 0.00000000e+00 
3.33333325e+00 5.33333349e+00 0.00000000e+00 
4.16666651e+00 5.33333349e+00 0.00000000e+00 
5.00000000e+00 5.33333349e+00 0.00000000e+00 
2.50000000e+00 5.66666651e+00 0.00000000e+00 
3.33333325e+00 5.66666651e+00 0.00000000e+00 
4.16666651e+00 5.66666651e+00 0.00000000e+00 
5.00000000e+00 5.66666651e+00 0.00000000e+00 
2.50000000e+00 6.00000000e+00 0.00000000e+00 
3.33333325e+00 6.00000000e+00 0.00000000e+00 
4.16666651e+00 6.00000000e+00 0.00000000e+00 
5.00000000e+00 6.00000000e+00 0.00000000e+00 

        </DataArray>
      </Points>
      <Cells>
        <DataArray type="Int32" Name="connectivity" format="ascii">
0 1 5 4
4 5 9 8
8 9 13 12
1 2 6 5
5 6 10 9
9 10 14 13
2 3 7 6
6 7 11 10
10 11 15 14

        </DataArray>
        <DataArray type="Int32" Name="offsets" format="ascii">
4 8 12 16 20 24 28 32 36 
        </DataArray>
        <DataArray type="UInt8" Name="types" format="ascii">
9 9 9 9 9 9 9 9 9 
        </DataArray>
      </Cells>
      <PointData>
        <DataArray type="Float64" Name="u">
          1.98769366e+02 1.91664060e+02 1.90306586e+02 1.82591114e+02 1.55821626e+02 1.51268563e+02 1.51119747e+02 1.48390310e+02 9.10573184e+01 9.60032137e+01 1.00550030e+02 1.06151786e+02 0.00000000e+00 4.65015403e+01 5.20346478e+01 6.91308274e+01 
        </DataArray>
        <DataArray type="Float64" Name="v">
          8.20013121e-01 4.49618118e+00 4.22666790e+00 2.44858173e+00 8.55706298e-01 6.88627390e+00 6.68588340e+00 2.96711904e+00 1.68161258e+00 6.59069792e+00 5.04125898e+00 2.37077281e+00 0.00000000e+00 -2.11136040e+00 6.85172686e-01 3.33889364e+00 
        </DataArray>
        <DataArray type="Float64" Name="p">
          -5.60197351e+03 -5.73604757e+03 -5.87012163e+03 -6.00419570e+03 -6.09624752e+03 -5.97325391e+03 -5.85026031e+03 -5.72726670e+03 -6.59052152e+03 -6.21046025e+03 -5.83039898e+03 -5.45033771e+03 -7.08479553e+03 -6.44766659e+03 -5.81053766e+03 -5.17340872e+03 
        </DataArray>
      </PointData>
    </Piece>
    <Piece NumberOfPoints="16" NumberOfCells="9">
      <Points>
        <DataArray type="Float64" NumberOfComponents="3" format="ascii">
          2.50000000e+00 6.00000000e+00 0.00000000e+00 
3.33333325e+00 6.00000000e+00 0.00000000e+00 
4.16666651e+00 6.00000000e+00 0.00000000e+00 
5.00000000e+00 6.00000000e+00 0.00000000e+00 
2.50000000e+00 6.33333349e+00 0.00000000e+00 
3.33333325e+00 6.33333349e+00 0.00000000e+00 
4.16666651e+00 6.33333349e+00 0.00000000e+00 
5.00000000e+00 6.33333349e+00 0.00000000e+00 
2.50000000e+00 6.66666651e+00 0.00000000e+00 
3.33333325e+00 6.66666651e+00 0.00000000e+00 
4.16666651e+00 6.66666651e+00 0.00000000e+00 
5.00000000e+00 6.66666651e+00 0.00000000e+00 
2.50000000e+00 7.00000000e+00 0.00000000e+00 
3.33333325e+00 7.00000000e+00 0.00000000e+00 
4.16666651e+00 7.00000000e+00 0.00000000e+00 
5.00000000e+00 7.00000000e+00 0.00000000e+00 

        </DataArray>
      </Points>
      <Cells>
        <DataArray type="Int32" Name="connectivity" format="ascii">
0 1 5 4
4 5 9 8
8 9 13 12
1 2 6 5
5 6 10 9
9 10 14 13
2 3 7 6
6 7 11 10
10 11 15 14

        </DataArray>
        <DataArray type="Int32" Name="offsets" format="ascii">
4 8 12 16 20 24 28 32 36 
        </DataArray>
        <DataArray type="UInt8" Name="types" format="ascii">
9 9 9 9 9 9 9 9 9 
        </DataArray>
      </Cells>
      <PointData>
        <DataArray type="Float64" Name="u">
          0.00000000e+00 4.65015403e+01 5.20346478e+01 6.91308274e+01 0.00000000e+00 1.23832507e+01 2.07421109e+01 3.55324714e+01 0.00000000e+00 -6.78416107e-01 3.79958287e+00 1.19213985e+01 0.00000000e+00 -5.34115611e+00 -5.02283965e+00 -4.37662906e+00 
        </DataArray>
        <DataArray type="Float64" Name="v">
          0.00000000e+00 -2.11136040e+00 6.85172686e-01 3.33889364e+00 0.00000000e+00 -1.33381383e+01 -6.18389176e+00 1.43226631e+00 0.00000000e+00 -1.68121918e+01 -9.12691618e+00 -1.19072750e+00 0.00000000e+00 -1.53546547e+01 -1.11137876e+01 -4.38066604e+00 
        </DataArray>
        <DataArray type="Float64" Name="p">
          -7.01924203e+03 -6.47574500e+03 -5.93224797e+03 -5.38875094e+03 -6.68539936e+03 -6.31044840e+03 -5.93549745e+03 -5.56054650e+03 -6.35155668e+03 -6.14515181e+03 -5.93874693e+03 -5.73234205e+03 -6.01771401e+03 -5.97985521e+03 -5.94199641e+03 -5.90413761e+03 
        </DataArray>
      </PointData>
    </Piece>
    <Piece NumberOfPoints="16" NumberOfCells="9">
      <Points>
        <DataArray type="Float64" NumberOfComponents="3" format="ascii">
          2.50000000e+00 7.00000000e+00 0.00000000e+00 
3.33333325e+00 7.00000000e+00 0.00000000e+00 
4.16666651e+00 7.00000000e+00 0.00000000e+00 
5.00000000e+00 7.00000000e+00 0.00000000e+00 
2.50000000e+00 7.33333349e+00 0.00000000e+00 
3.33333325e+00 7.33333349e+00 0.00000000e+00 
4.16666651e+00 7.33333349e+00 0.00000000e+00 
5.00000000e+00 7.33333349e+00 0.00000000e+00 
2.50000000e+00 7.66666651e+00 0.00000000e+00 
3.33333325e+00 7.66666651e+00 0.00000000e+00 
4.16666651e+00 7.66666651e+00 0.00000000e+00 
5.00000000e+00 7.66666651e+00 0.00000000e+00 
2.50000000e+00 8.00000000e+00 0.00000000e+00 
3.33333325e+00 8.00000000e+00 0.00000000e+00 
4.16666651e+00 8.00000000e+00 0.00000000e+00 
5.00000000e+00 8.00000000e+00 0.00000000e+00 

        </DataArray>
      </Points>
      <Cells>
        <DataArray type="Int32" Name="connectivity" format="ascii">
0 1 5 4
4 5 9 8
8 9 13 12
1 2 6 5
5 6 10 9
9 10 14 13
2 3 7 6
6 7 11 10
10 11 15 14

        </DataArray>
        <DataArray type="Int32" Name="offsets" format="ascii">
4 8 12 16 20 24 28 32 36 
        </DataArray>
        <DataArray type="UInt8" Name="types" format="ascii">
9 9 9 9 9 9 9 9 9 
        </DataArray>
      </Cells>
      <PointData>
        <DataArray type="Float64" Name="u">
          0.00000000e+00 -5.34115611e+00 -5.02283965e+00 -4.37662906e+00 0.00000000e+00 -7.18810791e+00 -1.00535072e+01 -1.35676715e+01 0.00000000e+00 -7.46084670e+00 -1.19764939e+01 -1.80045315e+01 0.00000000e+00 -6.73363147e+00 -1.15072137e+01 -1.84026821e+01 
        </DataArray>
        <DataArray type="Float64" Name="v">
          0.00000000e+00 -1.53546547e+01 -1.11137876e+01 -4.38066604e+00 0.00000000e+00 -1.23624058e+01 -1.00690747e+01 -5.26652363e+00 0.00000000e+00 -9.47685189e+00 -8.15861565e+00 -4.85138063e+00 0.00000000e+00 -5.72737587e+00 -5.36355981e+00 -3.51481776e+00 
        </DataArray>
        <DataArray type="Float64" Name="p">
          -6.05510210e+03 -5.96914298e+03 -5.88318386e+03 -5.79722474e+03 -5.96249241e+03 -5.89168366e+03 -5.82087492e+03 -5.75006617e+03 -5.86988272e+03 -5.81422435e+03 -5.75856597e+03 -5.70290760e+03 -5.77727303e+03 -5.73676503e+03 -5.69625703e+03 -5.65574903e+03 
        </DataArray>
      </PointData>
    </Piece>
    <Piece NumberOfPoints="16" NumberOfCells="9">
      <Points>
        <DataArray type="Float64" NumberOfComponents="3" format="ascii">
          2.50000000e+00 8.00000000e+00 0.00000000e+00 
3.33333325e+00 8.00000000e+00 0.00000000e+00 
4.16666651e+00 8.00000000e+00 0.00000000e+00 
5.00000000e+00 8.00000000e+00 0.00000000e+00 
2.50000000e+00 8.33333302e+00 0.00000000e+00 
3.33333325e+00 8.33333302e+00 0.00000000e+00 
4.16666651e+00 8.33333302e+00 0.00000000e+00 
5.00000000e+00 8.33333302e+00 0.00000000e+00 
2.50000000e+00 8.66666698e+00 0.00000000e+00 
3.33333325e+00 8.66666698e+00 0.00000000e+00 
4.16666651e+00 8.66666698e+00 0.00000000e+00 
5.00000000e+00 8.66666698e+00 0.00000000e+00 
2.50000000e+00 9.00000000e+00 0.00000000e+00 
3.33333325e+00 9.00000000e+00 0.00000000e+00 
4.16666651e+00 9.00000000e+00 0.00000000e+00 
5.00000000e+00 9.00000000e+00 0.00000000e+00 

        </DataArray>
      </Points>
      <Cells>
        <DataArray type="Int32" Name="connectivity" format="ascii">
0 1 5 4
4 5 9 8
8 9 13 12
1 2 6 5
5 6 10 9
9 10 14 13
2 3 7 6
6 7 11 10
10 11 15 14

        </DataArray>
        <DataArray type="Int32" Name="offsets" format="ascii">
4 8 12 16 20 24 28 32 36 
        </DataArray>
        <DataArray type="UInt8" Name="types" format="ascii">
9 9 9 9 9 9 9 9 9 
        </DataArray>
      </Cells>
      <PointData>
        <DataArray type="Float64" Name="u">
          0.00000000e+00 -6.73363147e+00 -1.15072137e+01 -1.84026821e+01 0.00000000e+00 -5.24958818e+00 -9.08990220e+00 -1.53813339e+01 0.00000000e+00 -3.01476359e+00 -5.08552485e+00 -9.14079274e+00 0.00000000e+00 0.00000000e+00 0.00000000e+00 0.00000000e+00 
        </DataArray>
        <DataArray type="Float64" Name="v">
          0.00000000e+00 -5.72737587e+00 -5.36355981e+00 -3.51481776e+00 0.00000000e+00 -2.61661975e+00 -2.61556266e+00 -1.74461039e+00 0.00000000e+00 -8.84843651e-01 -9.49455767e-01 -6.55155970e-01 0.00000000e+00 0.00000000e+00 0.00000000e+00 0.00000000e+00 
        </DataArray>
        <DataArray type="Float64" Name="p">
          -5.79284357e+03 -5.74303280e+03 -5.69322202e+03 -5.64341124e+03 -5.80618776e+03 -5.75649079e+03 -5.70679383e+03 -5.65709686e+03 -5.81953194e+03 -5.76994878e+03 -5.72036563e+03 -5.67078248e+03 -5.83287612e+03 -5.78340678e+03 -5.73393744e+03 -5.68446810e+03 
        </DataArray>
      </PointData>
    </Piece>
    <Piece NumberOfPoints="16" NumberOfCells="9">
      <Points>
        <DataArray type="Float64" NumberOfComponents="3" format="ascii">
          5.00000000e+00 0.00000000e+00 0.00000000e+00 
5.83333349e+00 0.00000000e+00 0.00000000e+00 
6.66666651e+00 0.00000000e+00 0.00000000e+00 
7.50000000e+00 0.00000000e+00 0.00000000e+00 
5.00000000e+00 3.33333343e-01 0.00000000e+00 
5.83333349e+00 3.33333343e-01 0.00000000e+00 
6.66666651e+00 3.33333343e-01 0.00000000e+00 
7.50000000e+00 3.33333343e-01 0.00000000e+00 
5.00000000e+00 6.66666687e-01 0.00000000e+00 
5.83333349e+00 6.66666687e-01 0.00000000e+00 
6.66666651e+00 6.66666687e-01 0.00000000e+00 
7.50000000e+00 6.66666687e-01 0.00000000e+00 
5.00000000e+00 1.00000000e+00 0.00000000e+00 
5.83333349e+00 1.00000000e+00 0.00000000e+00 
6.66666651e+00 1.00000000e+00 0.00000000e+00 
7.50000000e+00 1.00000000e+00 0.00000000e+00 

        </DataArray>
      </Points>
      <Cells>
        <DataArray type="Int32" Name="connectivity" format="ascii">
0 1 5 4
4 5 9 8
8 9 13 12
1 2 6 5
5 6 10 9
9 10 14 13
2 3 7 6
6 7 11 10
10 11 15 14

        </DataArray>
        <DataArray type="Int32" Name="offsets" format="ascii">
4 8 12 16 20 24 28 32 36 
        </DataArray>
        <DataArray type="UInt8" Name="types" format="ascii">
9 9 9 9 9 9 9 9 9 
        </DataArray>
      </Cells>
      <PointData>
        <DataArray type="Float64" Name="u">