<?xml version="1.0"?>
<VTKFile type="UnstructuredGrid" version="0.1" byte_order="LittleEndian">
  <UnstructuredGrid>
    <Piece NumberOfPoints="36" NumberOfCells="25">
      <Points>
        <DataArray type="Float64" NumberOfComponents="3" format="ascii">
          0.00000000e+00 3.00000000e+00 0.00000000e+00 
5.00000000e-01 3.00000000e+00 0.00000000e+00 
1.00000000e+00 3.00000000e+00 0.00000000e+00 
1.50000000e+00 3.00000000e+00 0.00000000e+00 
2.00000000e+00 3.00000000e+00 0.00000000e+00 
2.50000000e+00 3.00000000e+00 0.00000000e+00 
0.00000000e+00 3.20000005e+00 0.00000000e+00 
5.00000000e-01 3.20000005e+00 0.00000000e+00 
1.00000000e+00 3.20000005e+00 0.00000000e+00 
1.50000000e+00 3.20000005e+00 0.00000000e+00 
2.00000000e+00 3.20000005e+00 0.00000000e+00 
2.50000000e+00 3.20000005e+00 0.00000000e+00 
0.00000000e+00 3.40000010e+00 0.00000000e+00 
5.00000000e-01 3.40000010e+00 0.00000000e+00 
1.00000000e+00 3.40000010e+00 0.00000000e+00 
1.50000000e+00 3.40000010e+00 0.00000000e+00 
2.00000000e+00 3.40000010e+00 0.00000000e+00 
2.50000000e+00 3.40000010e+00 0.00000000e+00 
0.00000000e+00 3.59999990e+00 0.00000000e+00 
5.00000000e-01 3.59999990e+00 0.00000000e+00 
1.00000000e+00 3.59999990e+00 0.00000000e+00 
1.50000000e+00 3.59999990e+00 0.00000000e+00 
2.00000000e+00 3.59999990e+00 0.00000000e+00 
2.50000000e+00 3.59999990e+00 0.00000000e+00 
0.00000000e+00 3.79999995e+00 0.00000000e+00 
5.00000000e-01 3.79999995e+00 0.00000000e+00 
1.00000000e+00 3.79999995e+00 0.00000000e+00 
1.50000000e+00 3.79999995e+00 0.00000000e+00 
2.00000000e+00 3.79999995e+00 0.00000000e+00 
2.50000000e+00 3.79999995e+00 0.00000000e+00 
0.00000000e+00 4.00000000e+00 0.00000000e+00 
5.00000000e-01 4.00000000e+00 0.00000000e+00 
1.00000000e+00 4.00000000e+00 0.00000000e+00 
1.50000000e+00 4.00000000e+00 0.00000000e+00 
2.00000000e+00 4.00000000e+00 0.00000000e+00 
2.50000000e+00 4.00000000e+00 0.00000000e+00 

        </DataArray>
      </Points>
      <Cells>
        <DataArray type="Int32" Name="connectivity" format="ascii">
0 1 7 6
6 7 13 12
12 13 19 18
18 19 25 24
24 25 31 30
1 2 8 7
7 8 14 13
13 14 20 19
19 20 26 25
25 26 32 31
2 3 9 8
8 9 15 14
14 15 21 20
20 21 27 26
26 27 33 32
3 4 10 9
9 10 16 15
15 16 22 21
21 22 28 27
27 28 34 33
4 5 11 10
10 11 17 16
16 17 23 22
22 23 29 28
28 29 35 34

        </DataArray>
        <DataArray type="Int32" Name="offsets" format="ascii">
4 8 12 16 20 24 28 32 36 40 44 48 52 56 60 64 68 72 76 80 84 88 92 96 100 
        </DataArray>
        <DataArray type="UInt8" Name="types" format="ascii">
9 9 9 9 9 9 9 9 9 9 9 9 9 9 9 9 9 9 9 9 9 9 9 9 9 
        </DataArray>
      </Cells>
      <PointData>
        <DataArray type="Float64" Name="u">
          0.00000000e+00 0.00000000e+00 0.00000000e+00 0.00000000e+00 0.00000000e+00 0.00000000e+00 6.16000000e+01 6.16398641e+01 6.19829919e+01 6.19513633e+01 6.33186677e+01 6.89188347e+01 1.14400000e+02 1.14374817e+02 1.15359328e+02 1.14283044e+02 1.16600811e+02 1.16534668e+02 1.58400000e+02 1.58337409e+02 1.59522238e+02 1.58318893e+02 1.59671045e+02 1.57962783e+02 1.93600000e+02 1.93935280e+02 1.94213925e+02 1.93442886e+02 1.93162558e+02 1.91879305e+02 2.20000000e+02 2.20179445e+02 2.18272681e+02 2.18124472e+02 2.15816231e+02 2.16998698e+02 
        </DataArray>
        <DataArray type="Float64" Name="v">
          0.00000000e+00 0.00000000e+00 0.00000000e+00 0.00000000e+00 0.00000000e+00 0.00000000e+00 0.00000000e+00 -1.71446662e-01 -9.57807708e-02 1.96489158e-01 -9.44172654e-01 -2.78256873e+00 0.00000000e+00 -2.84648186e-01 -4.23388378e-01 7.97016131e-02 -2.04837667e+00 -2.68574391e+00 0.00000000e+00 -9.17154911e-02 -7.51702341e-01 -4.72164886e-01 -2.19065635e+00 -2.22352583e+00 0.00000000e+00 1.01769398e-01 -9.68310879e-01 -1.11426261e+00 -1.46182998e+00 -1.65019147e+00 0.00000000e+00 3.66795593e-02 -4.99353405e-01 -7.52946432e-01 -1.11662263e+00 -1.86697966e+00 
        </DataArray>
        <DataArray type="Float64" Name="p">
          -1.12600022e+04 -1.19336419e+04 -1.25281998e+04 -1.31363452e+04 -1.38507478e+04 -1.47640770e+04 -1.12908101e+04 -1.19348671e+04 -1.25358223e+04 -1.31580038e+04 -1.38657393e+04 -1.47233568e+04 -1.12027779e+04 -1.19258360e+04 -1.25523898e+04 -1.31488017e+04 -1.37814340e+04 -1.45166490e+04 -1.10960658e+04 -1.19019390e+04 -1.25531714e+04 -1.31186767e+04 -1.36673689e+04 -1.42681618e+04 -1.10708341e+04 -1.18585665e+04 -1.25134361e+04 -1.30775665e+04 -1.35930812e+04 -1.41021034e+04 -1.12272431e+04 -1.17911085e+04 -1.24084532e+04 -1.30354091e+04 -1.36281080e+04 -1.41426820e+04 
        </DataArray>
      </PointData>
    </Piece>
    <Piece NumberOfPoints="36" NumberOfCells="25">
      <Points>
        <DataArray type="Float64" NumberOfComponents="3" format="ascii">
          0.00000000e+00 4.00000000e+00 0.00000000e+00 
5.00000000e-01 4.00000000e+00 0.00000000e+00 
1.00000000e+00 4.00000000e+00 0.00000000e+00 
1.50000000e+00 4.00000000e+00 0.00000000e+00 
2.00000000e+00 4.00000000e+00 0.00000000e+00 
2.50000000e+00 4.00000000e+00 0.00000000e+00 
0.00000000e+00 4.19999981e+00 0.00000000e+00 
5.00000000e-01 4.19999981e+00 0.00000000e+00 
1.00000000e+00 4.19999981e+00 0.00000000e+00 
1.50000000e+00 4.19999981e+00 0.00000000e+00 
2.00000000e+00 4.19999981e+00 0.00000000e+00 
2.50000000e+00 4.19999981e+00 0.00000000e+00 
0.00000000e+00 4.40000010e+00 0.00000000e+00 
5.00000000e-01 4.40000010e+00 0.00000000e+00 
1.00000000e+00 4.40000010e+00 0.00000000e+00 
1.50000000e+00 4.40000010e+00 0.00000000e+00 
2.00000000e+00 4.40000010e+00 0.00000000e+00 
2.50000000e+00 4.40000010e+00 0.00000000e+00 
0.00000000e+00 4.59999990e+00 0.00000000e+00 
5.00000000e-01 4.59999990e+00 0.00000000e+00 
1.00000000e+00 4.59999990e+00 0.00000000e+00 
1.50000000e+00 4.59999990e+00 0.00000000e+00 
2.00000000e+00 4.59999990e+00 0.00000000e+00 
2.50000000e+00 4.59999990e+00 0.00000000e+00 
0.00000000e+00 4.80000019e+00 0.00000000e+00 
5.00000000e-01 4.80000019e+00 0.00000000e+00 
1.00000000e+00 4.80000019e+00 0.00000000e+00 
1.50000000e+00 4.80000019e+00 0.00000000e+00 
2.00000000e+00 4.80000019e+00 0.00000000e+00 
2.50000000e+00 4.80000019e+00 0.00000000e+00 
0.00000000e+00 5.00000000e+00 0.00000000e+00 
5.00000000e-01 5.00000000e+00 0.00000000e+00 
1.00000000e+00 5.00000000e+00 0.00000000e+00 
1.50000000e+00 5.00000000e+00 0.00000000e+00 
2.00000000e+00 5.00000000e+00 0.00000000e+00 
2.50000000e+00 5.00000000e+00 0.00000000e+00 

        </DataArray>
      </Points>
      <Cells>
        <DataArray type="Int32" Name="connectivity" format="ascii">
0 1 7 6
6 7 13 12
12 13 19 18
18 19 25 24
24 25 31 30
1 2 8 7
7 8 14 13
13 14 20 19
19 20 26 25
25 26 32 31
2 3 9 8
8 9 15 14
14 15 21 20
20 21 27 26
26 27 33 32
3 4 10 9
9 10 16 15
15 16 22 21
21 22 28 27
27 28 34 33
4 5 11 10
10 11 17 16
16 17 23 22
22 23 29 28
28 29 35 34

        </DataArray>
        <DataArray type="Int32" Name="offsets" format="ascii">
4 8 12 16 20 24 28 32 36 40 44 48 52 56 60 64 68 72 76 80 84 88 92 96 100 
        </DataArray>
        <DataArray type="UInt8" Name="types" format="ascii">
9 9 9 9 9 9 9 9 9 9 9 9 9 9 9 9 9 9 9 9 9 9 9 9 9 
        </DataArray>
      </Cells>
      <PointData>
        <DataArray type="Float64" Name="u">
          2.20000000e+02 2.20179445e+02 2.18272681e+02 2.18124472e+02 2.15816231e+02 2.16998698e+02 2.37600000e+02 2.37829063e+02 2.37621522e+02 2.37090321e+02 2.36124452e+02 2.34541049e+02 2.46400000e+02 2.46351537e+02 2.46671823e+02 2.45928326e+02 2.45492842e+02 2.43174760e+02 2.46400000e+02 2.46351537e+02 2.46671823e+02 2.45928326e+02 2.45492842e+02 2.43174760e+02 2.37600000e+02 2.37829064e+02 2.37621522e+02 2.37090321e+02 2.36124451e+02 2.34541048e+02 2.20000000e+02 2.20179445e+02 2.18272681e+02 2.18124472e+02 2.15816230e+02 2.16998697e+02 
        </DataArray>
        <DataArray type="Float64" Name="v">
          0.00000000e+00 3.66795593e-02 -4.99353405e-01 -7.52946432e-01 -1.11662263e+00 -1.86697966e+00 0.00000000e+00 -1.24566982e-01 -3.97067717e-02 4.02198485e-02 -9.95759599e-01 -1.19159689e+00 0.00000000e+00 -4.18893974e-02 -4.78515106e-02 9.72280049e-02 -2.70069884e-01 -3.77398865e-01 0.00000000e+00 4.18892420e-02 4.78507942e-02 -9.72287196e-02 2.70068286e-01 3.77397586e-01 0.00000000e+00 1.24566832e-01 3.97061261e-02 -4.02205994e-02 9.95758157e-01 1.19159555e+00 0.00000000e+00 -3.66796542e-02 4.99352855e-01 7.52945608e-01 1.11662145e+00 1.86697821e+00 
        </DataArray>
        <DataArray type="Float64" Name="p">
          -1.13707498e+04 -1.17875661e+04 -1.23703894e+04 -1.30017482e+04 -1.35641708e+04 -1.39401859e+04 -1.11813672e+04 -1.17919784e+04 -1.24023623e+04 -1.29671718e+04 -1.34410594e+04 -1.37786778e+04 -1.10866759e+04 -1.17941845e+04 -1.24183488e+04 -1.29498836e+04 -1.33795036e+04 -1.36979237e+04 -1.10866758e+04 -1.17941845e+04 -1.24183488e+04 -1.29498836e+04 -1.33795036e+04 -1.36979237e+04 -1.11813671e+04 -1.17919783e+04 -1.24023623e+04 -1.29671717e+04 -1.34410593e+04 -1.37786777e+04 -1.13707496e+04 -1.17875660e+04 -1.23703894e+04 -1.30017481e+04 -1.35641707e+04 -1.39401857e+04 
        </DataArray>
      </PointData>
    </Piece>
    <Piece NumberOfPoints="36" NumberOfCells="25">
      <Points>
        <DataArray type="Float64" NumberOfComponents="3" format="ascii">
          0.00000000e+00 5.00000000e+00 0.00000000e+00 
5.00000000e-01 5.00000000e+00 0.00000000e+00 
1.00000000e+00 5.00000000e+00 0.00000000e+00 
1.50000000e+00 5.00000000e+00 0.00000000e+00 
2.00000000e+00 5.00000000e+00 0.00000000e+00 
2.50000000e+00 5.00000000e+00 0.00000000e+00 
0.00000000e+00 5.19999981e+00 0.00000000e+00 
5.00000000e-01 5.19999981e+00 0.00000000e+00 
1.00000000e+00 5.19999981e+00 0.00000000e+00 
1.50000000e+00 5.19999981e+00 0.00000000e+00 
2.00000000e+00 5.19999981e+00 0.00000000e+00 
2.50000000e+00 5.19999981e+00 0.00000000e+00 
0.00000000e+00 5.40000010e+00 0.00000000e+00 
5.00000000e-01 5.40000010e+00 0.00000000e+00 
1.00000000e+00 5.40000010e+00 0.00000000e+00 
1.50000000e+00 5.40000010e+00 0.00000000e+00 
2.00000000e+00 5.40000010e+00 0.00000000e+00 
2.50000000e+00 5.40000010e+00 0.00000000e+00 
0.00000000e+00 5.59999990e+00 0.00000000e+00 
5.00000000e-01 5.59999990e+00 0.00000000e+00 
1.00000000e+00 5.59999990e+00 0.00000000e+00 
1.50000000e+00 5.59999990e+00 0.00000000e+00 
2.00000000e+00 5.59999990e+00 0.00000000e+00 
2.50000000e+00 5.59999990e+00 0.00000000e+00 
0.00000000e+00 5.80000019e+00 0.00000000e+00 
5.00000000e-01 5.80000019e+00 0.00000000e+00 
1.00000000e+00 5.80000019e+00 0.00000000e+00 
1.50000000e+00 5.80000019e+00 0.00000000e+00 
2.00000000e+00 5.80000019e+00 0.00000000e+00 
2.50000000e+00 5.80000019e+00 0.00000000e+00 
0.00000000e+00 6.00000000e+00 0.00000000e+00 
5.00000000e-01 6.00000000e+00 0.00000000e+00 
1.00000000e+00 6.00000000e+00 0.00000000e+00 
1.50000000e+00 6.00000000e+00 0.00000000e+00 
2.00000000e+00 6.00000000e+00 0.00000000e+00 
2.50000000e+00 6.00000000e+00 0.00000000e+00 

        </DataArray>
      </Points>
      <Cells>
        <DataArray type="Int32" Name="connectivity" format="ascii">
0 1 7 6
6 7 13 12
12 13 19 18
18 19 25 24
24 25 31 30
1 2 8 7
7 8 14 13
13 14 20 19
19 20 26 25
25 26 32 31
2 3 9 8
8 9 15 14
14 15 21 20
20 21 27 26
26 27 33 32
3 4 10 9
9 10 16 15
15 16 22 21
21 22 28 27
27 28 34 33
4 5 11 10
10 11 17 16
16 17 23 22
22 23 29 28
28 29 35 34

        </DataArray>
        <DataArray type="Int32" Name="offsets" format="ascii">
4 8 12 16 20 24 28 32 36 40 44 48 52 56 60 64 68 72 76 80 84 88 92 96 100 
        </DataArray>
        <DataArray type="UInt8" Name="types" format="ascii">
9 9 9 9 9 9 9 9 9 9 9 9 9 9 9 9 9 9 9 9 9 9 9 9 9 
        </DataArray>
      </Cells>
      <PointData>
        <DataArray type="Float64" Name="u">
          2.20000000e+02 2.20179445e+02 2.18272681e+02 2.18124472e+02 2.15816230e+02 2.16998697e+02 1.93600000e+02 1.93935280e+02 1.94213925e+02 1.93442886e+02 1.93162557e+02 1.91879304e+02 1.58400000e+02 1.58337409e+02 1.59522238e+02 1.58318892e+02 1.59671044e+02 1.57962782e+02 1.14400000e+02 1.14374817e+02 1.15359328e+02 1.14283043e+02 1.16600810e+02 1.16534666e+02 6.16000000e+01 6.16398641e+01 6.19829917e+01 6.19513628e+01 6.33186666e+01 6.89188326e+01 0.00000000e+00 0.00000000e+00 0.00000000e+00 0.00000000e+00 0.00000000e+00 0.00000000e+00 
        </DataArray>
        <DataArray type="Float64" Name="v">
          0.00000000e+00 -3.66796542e-02 4.99352855e-01 7.52945608e-01 1.11662145e+00 1.86697821e+00 0.00000000e+00 -1.01769491e-01 9.68310387e-01 1.11426196e+00 1.46182893e+00 1.65019041e+00 0.00000000e+00 9.17154004e-02 7.51701966e-01 4.72164475e-01 2.19065549e+00 2.22352509e+00 0.00000000e+00 2.84648101e-01 4.23388161e-01 -7.97018318e-02 2.04837611e+00 2.68574337e+00 0.00000000e+00 1.71446630e-01 9.57806990e-02 -1.96489224e-01 9.44172463e-01 2.78256841e+00 0.00000000e+00 0.00000000e+00 0.00000000e+00 0.00000000e+00 0.00000000e+00 0.00000000e+00 
        </DataArray>
        <DataArray type="Float64" Name="p">
          -1.12272430e+04 -1.17911084e+04 -1.24084531e+04 -1.30354089e+04 -1.36281079e+04 -1.41426818e+04 -1.10708340e+04 -1.18585663e+04 -1.25134360e+04 -1.30775664e+04 -1.35930809e+04 -1.41021031e+04 -1.10960656e+04 -1.19019389e+04 -1.25531712e+04 -1.31186765e+04 -1.36673686e+04 -1.42681615e+04 -1.12027777e+04 -1.19258358e+04 -1.25523897e+04 -1.31488015e+04 -1.37814337e+04 -1.45166487e+04 -1.12908099e+04 -1.19348669e+04 -1.25358222e+04 -1.31580036e+04 -1.38657391e+04 -1.47233564e+04 -1.12600021e+04 -1.19336418e+04 -1.25281996e+04 -1.31363450e+04 -1.38507475e+04 -1.47640766e+04 
        </DataArray>
      </PointData>
    </Piece>
    <Piece NumberOfPoints="36" NumberOfCells="25">
      <Points>
        <DataArray type="Float64" NumberOfComponents="3" format="ascii">
          2.50000000e+00 0.00000000e+00 0.00000000e+00 
3.00000000e+00 0.00000000e+00 0.00000000e+00 
3.50000000e+00 0.00000000e+00 0.00000000e+00 
4.00000000e+00 0.00000000e+00 0.00000000e+00 
4.50000000e+00 0.00000000e+00 0.00000000e+00 
5.00000000e+00 0.00000000e+00 0.00000000e+00 
2.50000000e+00 2.00000003e-01 0.00000000e+00 
3.00000000e+00 2.00000003e-01 0.00000000e+00 
3.50000000e+00 2.00000003e-01 0.00000000e+00 
4.00000000e+00 2.00000003e-01 0.00000000e+00 
4.50000000e+00 2.00000003e-01 0.00000000e+00 
5.00000000e+00 2.00000003e-01 0.00000000e+00 
2.50000000e+00 4.00000006e-01 0.00000000e+00 
3.00000000e+00 4.00000006e-01 0.00000000e+00 
3.50000000e+00 4.00000006e-01 0.00000000e+00 
4.00000000e+00 4.00000006e-01 0.00000000e+00 
4.50000000e+00 4.00000006e-01 0.00000000e+00 
5.00000000e+00 4.00000006e-01 0.00000000e+00 
2.50000000e+00 6.00000024e-01 0.00000000e+00 
3.00000000e+00 6.00000024e-01 0.00000000e+00 
3.50000000e+00 6.00000024e-01 0.00000000e+00 
4.00000000e+00 6.00000024e-01 0.00000000e+00 
4.50000000e+00 6.00000024e-01 0.00000000e+00 
5.00000000e+00 6.00000024e-01 0.00000000e+00 
2.50000000e+00 8.00000012e-01 0.00000000e+00 
3.00000000e+00 8.00000012e-01 0.00000000e+00 
3.50000000e+00 8.00000012e-01 0.00000000e+00 
4.00000000e+00 8.00000012e-01 0.00000000e+00 
4.50000000e+00 8.00000012e-01 0.00000000e+00 
5.00000000e+00 8.00000012e-01 0.00000000e+00 
2.50000000e+00 1.00000000e+00 0.00000000e+00 
3.00000000e+00 1.00000000e+00 0.00000000e+00 
3.50000000e+00 1.00000000e+00 0.00000000e+00 
4.00000000e+00 1.00000000e+00 0.00000000e+00 
4.50000000e+00 1.00000000e+00 0.00000000e+00 
5.00000000e+00 1.00000000e+00 0.00000000e+00 

        </DataArray>
      </Points>
      <Cells>
        <DataArray type="Int32" Name="connectivity" format="ascii">
0 1 7 6
6 7 13 12
12 13 19 18
18 19 25 24
24 25 31 30
1 2 8 7
7 8 14 13
13 14 20 19
19 20 26 25
25 26 32 31
2 3 9 8
8 9 15 14
14 15 21 20
20 21 27 26
26 27 33 32
3 4 10 9
9 10 16 15
15 16 22 21
21 22 28 27
27 28 34 33
4 5 11 10
10 11 17 16
16 17 23 22
22 23 29 28
28 29 35 34

        </DataArray>
        <DataArray type="Int32" Name="offsets" format="ascii">
4 8 12 16 20 24 28 32 36 40 44 48 52 56 60 64 68 72 76 80 84 88 92 96 100 
        </DataArray>
        <DataArray type="UInt8" Name="types" format="ascii">
9 9 9 9 9 9 9 9 9 9 9 9 9 9 9 9 9 9 9 9 9 9 9 9 9 
        </DataArray>
      </Cells>
      <PointData>
        <DataArray type="Float64" Name="u">
          0.00000000e+00 0.00000000e+00 0.00000000e+00 0.00000000e+00 0.00000000e+00 0.00000000e+00 0.00000000e+00 -3.54544991e-01 -1.48923604e+00 -2.78668214e+00 -4.02959586e+00 -5.30580149e+00 0.00000000e+00 -8.28274470e-01 -2.87256273e+00 -5.19342590e+00 -7.38330469e+00 -9.34689150e+00 0.00000000e+00 -1.28722595e+00 -4.08854546e+00 -7.17343502e+00 -9.99946749e+00 -1.23925651e+01 0.00000000e+00 -1.72348366e+00 -5.07058791e+00 -8.62195972e+00 -1.18354995e+01 -1.44355203e+01 0.00000000e+00 -2.21888403e+00 -5.75921823e+00 -9.41028269e+00 -1.27371492e+01 -1.55616326e+01 
        </DataArray>
        <DataArray type="Float64" Name="v">
          0.00000000e+00 0.00000000e+00 0.00000000e+00 0.00000000e+00 0.00000000e+00 0.00000000e+00 0.00000000e+00 1.50276807e-01 2.92148647e-01 2.70184194e-01 2.34610946e-01 3.67624946e-01 0.00000000e+00 6.22805394e-01 1.04742237e+00 9.88903876e-01 8.88716646e-01 1.03551350e+00 0.00000000e+00 1.39276274e+00 2.15381204e+00 2.06523768e+00 1.81458876e+00 1.89358550e+00 0.00000000e+00 2.42569957e+00 3.49704439e+00 3.38254352e+00 2.91650574e+00 2.81899810e+00 0.00000000e+00 3.70002955e+00 4.93209091e+00 4.77440954e+00 4.17637530e+00 3.64430558e+00 
        </DataArray>
        <DataArray type="Float64" Name="p">
          -1.45397676e+04 -1.45741036e+04 -1.45832840e+04 -1.45693964e+04 -1.45345282e+04 -1.44807671e+04 -1.45429866e+04 -1.45647414e+04 -1.45696245e+04 -1.45556735e+04 -1.45209257e+04 -1.44634187e+04 -1.45364501e+04 -1.45572258e+04 -1.45603643e+04 -1.45451457e+04 -1.45108500e+04 -1.44567571e+04 -1.45254172e+04 -1.45529018e+04 -1.45565969e+04 -1.45395196e+04 -1.45046872e+04 -1.44551168e+04 -1.45151470e+04 -1.45531146e+04 -1.45594157e+04 -1.45405015e+04 -1.45028233e+04 -1.44528323e+04 -1.45108985e+04 -1.45592092e+04 -1.45699141e+04 -1.45497977e+04 -1.45056444e+04 -1.44442384e+04 
        </DataArray>
      </PointData>
    </Piece>
    <Piece NumberOfPoints="36" NumberOfCells="25">
      <Points>
        <DataArray type="Float64" NumberOfComponents="3" format="ascii">
          2.50000000e+00 1.00000000e+00 0.00000000e+00 
3.00000000e+00 1.00000000e+00 0.00000000e+00 
3.50000000e+00 1.00000000e+00 0.00000000e+00 
4.00000000e+00 1.00000000e+00 0.00000000e+00 
4.50000000e+00 1.00000000e+00 0.00000000e+00 
5.00000000e+00 1.00000000e+00 0.00000000e+00 
2.50000000e+00 1.20000005e+00 0.00000000e+00 
3.00000000e+00 1.20000005e+00 0.00000000e+00 
3.50000000e+00 1.20000005e+00 0.00000000e+00 
4.00000000e+00 1.20000005e+00 0.00000000e+00 
4.50000000e+00 1.20000005e+00 0.00000000e+00 
5.00000000e+00 1.20000005e+00 0.00000000e+00 
2.50000000e+00 1.39999998e+00 0.00000000e+00 
3.00000000e+00 1.39999998e+00 0.00000000e+00 
3.50000000e+00 1.39999998e+00 0.00000000e+00 
4.00000000e+00 1.39999998e+00 0.00000000e+00 
4.50000000e+00 1.39999998e+00 0.00000000e+00 
5.00000000e+00 1.39999998e+00 0.00000000e+00 
2.50000000e+00 1.60000002e+00 0.00000000e+00 
3.00000000e+00 1.60000002e+00 0.00000000e+00 
3.50000000e+00 1.60000002e+00 0.00000000e+00 
4.00000000e+00 1.60000002e+00 0.00000000e+00 
4.50000000e+00 1.60000002e+00 0.00000000e+00 
5.00000000e+00 1.60000002e+00 0.00000000e+00 
2.50000000e+00 1.79999995e+00 0.00000000e+00 
3.00000000e+00 1.79999995e+00 0.00000000e+00 
3.50000000e+00 1.79999995e+00 0.00000000e+00 
4.00000000e+00 1.79999995e+00 0.00000000e+00 
4.50000000e+00 1.79999995e+00 0.00000000e+00 
5.00000000e+00 1.79999995e+00 0.00000000e+00 
2.50000000e+00 2.00000000e+00 0.00000000e+00 
3.00000000e+00 2.00000000e+00 0.00000000e+00 
3.50000000e+00 2.00000000e+00 0.00000000e+00 
4.00000000e+00 2.00000000e+00 0.00000000e+00 
4.50000000e+00 2.00000000e+00 0.00000000e+00 
5.00000000e+00 2.00000000e+00 0.00000000e+00 

        </DataArray>
      </Points>
      <Cells>
        <DataArray type="Int32" Name="connectivity" format="ascii">
0 1 7 6
6 7 13 12
12 13 19 18
18 19 25 24
24 25 31 30
1 2 8 7
7 8 14 13
13 14 20 19
19 20 26 25
25 26 32 31
2 3 9 8
8 9 15 14
14 15 21 20
20 21 27 26
26 27 33 32
3 4 10 9
9 10 16 15
15 16 22 21
21 22 28 27
27 28 34 33
4 5 11 10
10 11 17 16
16 17 23 22
22 23 29 28
28 29 35 34

        </DataArray>
        <DataArray type="Int32" Name="offsets" format="ascii">
4 8 12 16 20 24 28 32 36 40 44 48 52 56 60 64 68 72 76 80 84 88 92 96 100 
        </DataArray>
        <DataArray type="UInt8" Name="types" format="ascii">
9 9 9 9 9 9 9 9 9 9 9 9 9 9 9 9 9 9 9 9 9 9 9 9 9 
        </DataArray>
      </Cells>
      <PointData>
        <DataArray type="Float64" Name="u">
          0.00000000e+00 -2.21888403e+00 -5.75921823e+00 -9.41028269e+00 -1.27371492e+01 -1.55616326e+01 0.00000000e+00 -2.37702774e+00 -6.57136473e+00 -1.05435168e+01 -1.37472019e+01 -1.60661495e+01 0.00000000e+00 -2.58799356e+00 -7.00635735e+00 -1.08720868e+01 -1.35914812e+01 -1.55645666e+01 0.00000000e+00 -2.72563312e+00 -6.96249097e+00 -1.02766855e+01 -1.22394616e+01 -1.37043768e+01 0.00000000e+00 -2.71083990e+00 -6.24874041e+00 -8.52803158e+00 -9.49217389e+00 -1.02605823e+01 0.00000000e+00 -2.40817045e+00 -4.49821258e+00 -5.18549119e+00 -4.89952994e+00 -5.17250188e+00 
        </DataArray>
        <DataArray type="Float64" Name="v">
          0.00000000e+00 3.70002955e+00 4.93209091e+00 4.77440954e+00 4.17637530e+00 3.64430558e+00 0.00000000e+00 5.18990831e+00 6.50673097e+00 6.15503176e+00 5.46047937e+00 4.18553935e+00 0.00000000e+00 6.80588302e+00 8.22789739e+00 7.54085610e+00 6.49590108e+00 4.86537558e+00 0.00000000e+00 8.49375651e+00 9.86949790e+00 8.72602415e+00 7.26593830e+00 5.55528035e+00 0.00000000e+00 1.01477308e+01 1.12262637e+01 9.56232127e+00 7.73679742e+00 6.11396402e+00 0.00000000e+00 1.15883977e+01 1.20163325e+01 9.87308421e+00 7.89339682e+00 6.44484310e+00 
        </DataArray>
        <DataArray type="Float64" Name="p">
          -1.45355570e+04 -1.45975857e+04 -1.46103883e+04 -1.45843169e+04 -1.45297235e+04 -1.44569600e+04 -1.45621437e+04 -1.46108556e+04 -1.46175288e+04 -1.45922242e+04 -1.45450022e+04 -1.44859237e+04 -1.45914172e+04 -1.46351177e+04 -1.46369032e+04 -1.46093744e+04 -1.45651315e+04 -1.45167753e+04 -1.46318412e+04 -1.46714627e+04 -1.46662866e+04 -1.46325778e+04 -1.45866010e+04 -1.45446212e+04 -1.46918795e+04 -1.47209814e+04 -1.47034540e+04 -1.46586446e+04 -1.46059003e+04 -1.45645680e+04 -1.47799960e+04 -1.47847643e+04 -1.47461805e+04 -1.46843852e+04 -1.46195190e+04 -1.45717223e+04 
        </DataArray>
      </PointData>
    </Piece>
    <Piece NumberOfPoints="36" NumberOfCells="25">
      <Points>
        <DataArray type="Float64" NumberOfComponents="3" format="ascii">
          2.50000000e+00 2.00000000e+00 0.00000000e+00 
3.00000000e+00 2.00000000e+00 0.00000000e+00 
3.50000000e+00 2.00000000e+00 0.00000000e+00 
4.00000000e+00 2.00000000e+00 0.00000000e+00 
4.50000000e+00 2.00000000e+00 0.00000000e+00 
5.00000000e+00 2.00000000e+00 0.00000000e+00 
2.50000000e+00 2.20000005e+00 0.00000000e+00 
3.00000000e+00 2.20000005e+00 0.00000000e+00 
3.50000000e+00 2.20000005e+00 0.00000000e+00 
4.00000000e+00 2.20000005e+00 0.00000000e+00 
4.50000000e+00 2.20000005e+00 0.00000000e+00 
5.00000000e+00 2.20000005e+00 0.00000000e+00 
2.50000000e+00 2.40000010e+00 0.00000000e+00 
3.00000000e+00 2.40000010e+00 0.00000000e+00 
3.50000000e+00 2.40000010e+00 0.00000000e+00 
4.00000000e+00 2.40000010e+00 0.00000000e+00 
4.50000000e+00 2.40000010e+00 0.00000000e+00 
5.00000000e+00 2.40000010e+00 0.00000000e+00 
2.50000000e+00 2.59999990e+00 0.00000000e+00 
3.00000000e+00 2.59999990e+00 0.00000000e+00 
3.50000000e+00 2.59999990e+00 0.00000000e+00 
4.00000000e+00 2.59999990e+00 0.00000000e+00 
4.50000000e+00 2.59999990e+00 0.00000000e+00 
5.00000000e+00 2.59999990e+00 0.00000000e+00 
2.50000000e+00 2.79999995e+00 0.00000000e+00 
3.00000000e+00 2.79999995e+00 0.00000000e+00 
3.50000000e+00 2.79999995e+00 0.00000000e+00 
4.00000000e+00 2.79999995e+00 0.00000000e+00 
4.50000000e+00 2.79999995e+00 0.00000000e+00 
5.00000000e+00 2.79999995e+00 0.00000000e+00 
2.50000000e+00 3.00000000e+00 0.00000000e+00 
3.00000000e+00 3.00000000e+00 0.00000000e+00 
3.50000000e+00 3.00000000e+00 0.00000000e+00 
4.00000000e+00 3.00000000e+00 0.00000000e+00 
4.50000000e+00 3.00000000e+00 0.00000000e+00 
5.00000000e+00 3.00000000e+00 0.00000000e+00 

        </DataArray>
      </Points>
      <Cells>
        <DataArray type="Int32" Name="connectivity" format="ascii">
0 1 7 6
6 7 13 12
12 13 19 18
18 19 25 24
24 25 31 30
1 2 8 7
7 8 14 13
13 14 20 19
19 20 26 25
25 26 32 31
2 3 9 8
8 9 15 14
14 15 21 20
20 21 27 26
26 27 33 32
3 4 10 9
9 10 16 15
15 16 22 21
21 22 28 27
27 28 34 33
4 5 11 10
10 11 17 16
16 17 23 22
22 23 29 28
28 29 35 34

        </DataArray>
        <DataArray type="Int32" Name="offsets" format="ascii">
4 8 12 16 20 24 28 32 36 40 44 48 52 56 60 64 68 72 76 80 84 88 92 96 100 
        </DataArray>
        <DataArray type="UInt8" Name="types" format="ascii">
9 9 9 9 9 9 9 9 9 9 9 9 9 9 9 9 9 9 9 9 9 9 9 9 9 
        </DataArray>
      </Cells>
      <PointData>
        <DataArray type="Float64" Name="u">
          0.00000000e+00 -2.40817045e+00 -4.49821258e+00 -5.18549119e+00 -4.89952994e+00 -5.17250188e+00 0.00000000e+00 -3.05669308e+00 -3.60027136e+00 -2.27718934e+00 2.12008126e-01 1.73023814e+00 0.00000000e+00 -2.60985618e+00 -2.34858377e-01 3.84659624e+00 8.42285003e+00 1.13562342e+01 0.00000000e+00 2.03165614e-03 7.67254374e+00 1.49376205e+01 2.04641412e+01 2.48273908e+01 0.00000000e+00 9.10556899e+00 2.30561590e+01 3.27516995e+01 3.76692322e+01 4.29356057e+01 0.00000000e+00 3.78711234e+01 4.74061653e+01 5.76194259e+01 6.24681653e+01 6.67955451e+01 
        </DataArray>
        <DataArray type="Float64" Name="v">
          0.00000000e+00 1.15883977e+01 1.20163325e+01 9.87308421e+00 7.89339682e+00 6.44484310e+00 0.00000000e+00 1.29535528e+01 1.19436997e+01 9.28142802e+00 7.71494576e+00 5.80631127e+00 0.00000000e+00 1.39873795e+01 1.07651870e+01 7.75992521e+00 6.78572492e+00 4.90390660e+00 0.00000000e+00 1.37950934e+01 7.33250831e+00 5.53581233e+00 5.68864976e+00 3.33170052e+00 0.00000000e+00 1.05364126e+01 2.40276136e+00 3.04991938e+00 4.12384212e+00 1.34263130e+00 0.00000000e+00 5.12684958e-01 8.00335048e-01 5.29374482e-01 4.94041023e-01 2.14977260e-01 
        </DataArray>
        <DataArray type="Float64" Name="p">
          -1.49445646e+04 -1.50024780e+04 -1.49196406e+04 -1.47777374e+04 -1.46584537e+04 -1.46434747e+04 -1.51210137e+04 -1.50584686e+04 -1.49380305e+04 -1.48015589e+04 -1.46909133e+04 -1.46479531e+04 -1.52678539e+04 -1.51530197e+04 -1.49780115e+04 -1.48035490e+04 -1.46903520e+04 -1.46991402e+04 -1.56009872e+04 -1.52615055e+04 -1.49888585e+04 -1.47945442e+04 -1.46900607e+04 -1.46869061e+04 -1.63363155e+04 -1.53593005e+04 -1.49198467e+04 -1.47853811e+04 -1.47233303e+04 -1.45011212e+04 -1.76897409e+04 -1.54217789e+04 -1.47202513e+04 -1.47868962e+04 -1.48234517e+04 -1.40316559e+04 
        </DataArray>
      </PointData>
    </Piece>
    <Piece NumberOfPoints="36" NumberOfCells="25">
      <Points>
        <DataArray type="Float64" NumberOfComponents="3" format="ascii">
          2.50000000e+00 3.00000000e+00 0.00000000e+00 
3.00000000e+00 3.00000000e+00 0.00000000e+00 
3.50000000e+00 3.00000000e+00 0.00000000e+00 
4.00000000e+00 3.00000000e+00 0.00000000e+00 
4.50000000e+00 3.00000000e+00 0.00000000e+00 
5.00000000e+00 3.00000000e+00 0.00000000e+00 
2.50000000e+00 3.20000005e+00 0.00000000e+00 
3.00000000e+00 3.20000005e+00 0.00000000e+00 
3.50000000e+00 3.20000005e+00 0.00000000e+00 
4.00000000e+00 3.20000005e+00 0.00000000e+00 
4.50000000e+00 3.20000005e+00 0.00000000e+00 
5.00000000e+00 3.20000005e+00 0.00000000e+00 
2.50000000e+00 3.40000010e+00 0.00000000e+00 
3.00000000e+00 3.40000010e+00 0.00000000e+00 
3.50000000e+00 3.40000010e+00 0.00000000e+00 
4.00000000e+00 3.40000010e+00 0.00000000e+00 
4.50000000e+00 3.40000010e+00 0.00000000e+00 
5.00000000e+00 3.40000010e+00 0.00000000e+00 
2.50000000e+00 3.59999990e+00 0.00000000e+00 
3.00000000e+00 3.59999990e+00 0.00000000e+00 
3.50000000e+00 3.59999990e+00 0.00000000e+00 
4.00000000e+00 3.59999990e+00 0.00000000e+00 
4.50000000e+00 3.59999990e+00 0.00000000e+00 
5.00000000e+00 3.59999990e+00 0.00000000e+00 
2.50000000e+00 3.79999995e+00 0.00000000e+00 
3.00000000e+00 3.79999995e+00 0.00000000e+00 
3.50000000e+00 3.79999995e+00 0.00000000e+00 
4.00000000e+00 3.79999995e+00 0.00000000e+00 
4.50000000e+00 3.79999995e+00 0.00000000e+00 
5.00000000e+00 3.79999995e+00 0.00000000e+00 
2.50000000e+00 4.00000000e+00 0.00000000e+00 
3.00000000e+00 4.00000000e+00 0.00000000e+00 
3.50000000e+00 4.00000000e+00 0.00000000e+00 
4.00000000e+00 4.00000000e+00 0.00000000e+00 
4.50000000e+00 4.00000000e+00 0.00000000e+00 
5.00000000e+00 4.00000000e+00 0.00000000e+00 

        </DataArray>
      </Points>
      <Cells>
        <DataArray type="Int32" Name="connectivity" format="ascii">
0 1 7 6
6 7 13 12
12 13 19 18
18 19 25 24
24 25 31 30
1 2 8 7
7 8 14 13
13 14 20 19
19 20 26 25
25 26 32 31
2 3 9 8
8 9 15 14
14 15 21 20
20 21 27 26
26 27 33 32
3 4 10 9
9 10 16 15
15 16 22 21
21 22 28 27
27 28 34 33
4 5 11 10
10 11 17 16
16 17 23 22
22 23 29 28
28 29 35 34

        </DataArray>
        <DataArray type="Int32" Name="offsets" format="ascii">
4 8 12 16 20 24 28 32 36 40 44 48 52 56 60 64 68 72 76 80 84 88 92 96 100 
        </DataArray>
        <DataArray type="UInt8" Name="types" format="ascii">
9 9 9 9 9 9 9 9 9 9 9 9 9 9 9 9 9 9 9 9 9 9 9 9 9 
        </DataArray>
      </Cells>
      <PointData>
        <DataArray type="Float64" Name="u">