<?xml version="1.0"?>
<VTKFile type="UnstructuredGrid" version="0.1" byte_order="LittleEndian">
  <UnstructuredGrid>
    <Piece NumberOfPoints="36" NumberOfCells="25">
      <Points>
        <DataArray type="Float64" NumberOfComponents="3" format="ascii">
          0.00000000e+00 3.00000000e+00 0.00000000e+00 
5.00000000e-01 3.00000000e+00 0.00000000e+00 
1.00000000e+00 3.00000000e+00 0.00000000e+00 
1.50000000e+00 3.00000000e+00 0.00000000e+00 
2.00000000e+00 3.00000000e+00 0.00000000e+00 
2.50000000e+00 3.00000000e+00 0.00000000e+00 
0.00000000e+00 3.20000005e+00 0.00000000e+00 
5.00000000e-01 3.20000005e+00 0.00000000e+00 
1.00000000e+00 3.20000005e+00 0.00000000e+00 
1.50000000e+00 3.20000005e+00 0.00000000e+00 
2.00000000e+00 3.20000005e+00 0.00000000e+00 
2.50000000e+00 3.20000005e+00 0.00000000e+00 
0.00000000e+00 3.40000010e+00 0.00000000e+00 
5.00000000e-01 3.40000010e+00 0.00000000e+00 
1.00000000e+00 3.40000010e+00 0.00000000e+00 
1.50000000e+00 3.40000010e+00 0.00000000e+00 
2.00000000e+00 3.40000010e+00 0.00000000e+00 
2.50000000e+00 3.40000010e+00 0.00000000e+00 
0.00000000e+00 3.59999990e+00 0.00000000e+00 
5.00000000e-01 3.59999990e+00 0.00000000e+00 
1.00000000e+00 3.59999990e+00 0.00000000e+00 
1.50000000e+00 3.59999990e+00 0.00000000e+00 
2.00000000e+00 3.59999990e+00 0.00000000e+00 
2.50000000e+00 3.59999990e+00 0.00000000e+00 
0.00000000e+00 3.79999995e+00 0.00000000e+00 
5.00000000e-01 3.79999995e+00 0.00000000e+00 
1.00000000e+00 3.79999995e+00 0.00000000e+00 
1.50000000e+00 3.79999995e+00 0.00000000e+00 
2.00000000e+00 3.79999995e+00 0.00000000e+00 
2.50000000e+00 3.79999995e+00 0.00000000e+00 
0.00000000e+00 4.00000000e+00 0.00000000e+00 
5.00000000e-01 4.00000000e+00 0.00000000e+00 
1.00000000e+00 4.00000000e+00 0.00000000e+00 
1.50000000e+00 4.00000000e+00 0.00000000e+00 
2.00000000e+00 4.00000000e+00 0.00000000e+00 
2.50000000e+00 4.00000000e+00 0.00000000e+00 

        </DataArray>
      </Points>
      <Cells>
        <DataArray type="Int32" Name="connectivity" format="ascii">
0 1 7 6
6 7 13 12
12 13 19 18
18 19 25 24
24 25 31 30
1 2 8 7
7 8 14 13
13 14 20 19
19 20 26 25
25 26 32 31
2 3 9 8
8 9 15 14
14 15 21 20
20 21 27 26
26 27 33 32
3 4 10 9
9 10 16 15
15 16 22 21
21 22 28 27
27 28 34 33
4 5 11 10
10 11 17 16
16 17 23 22
22 23 29 28
28 29 35 34

        </DataArray>
        <DataArray type="Int32" Name="offsets" format="ascii">
4 8 12 16 20 24 28 32 36 40 44 48 52 56 60 64 68 72 76 80 84 88 92 96 100 
        </DataArray>
        <DataArray type="UInt8" Name="types" format="ascii">
9 9 9 9 9 9 9 9 9 9 9 9 9 9 9 9 9 9 9 9 9 9 9 9 9 
        </DataArray>
      </Cells>
      <PointData>
        <DataArray type="Float64" Name="u">
          0.00000000e+00 0.00000000e+00 0.00000000e+00 0.00000000e+00 0.00000000e+00 0.00000000e+00 6.16000000e+01 6.16408133e+01 6.28414952e+01 6.40523368e+01 6.79033616e+01 7.78417051e+01 1.14400000e+02 1.14389107e+02 1.16622957e+02 1.16765439e+02 1.22540650e+02 1.26327909e+02 1.58400000e+02 1.58353707e+02 1.60846154e+02 1.60648343e+02 1.65151503e+02 1.66795839e+02 1.93600000e+02 1.94058461e+02 1.95271578e+02 1.95430053e+02 1.97615384e+02 1.98719962e+02 2.20000000e+02 2.20230950e+02 2.18564949e+02 2.19753444e+02 2.18583508e+02 2.22438686e+02 
        </DataArray>
        <DataArray type="Float64" Name="v">
          0.00000000e+00 0.00000000e+00 0.00000000e+00 0.00000000e+00 0.00000000e+00 0.00000000e+00 0.00000000e+00 -3.12483743e-01 -4.03847592e-01 -8.87289649e-02 -1.79967769e+00 -4.12644087e+00 0.00000000e+00 -6.70713203e-01 -1.38456513e+00 -8.92566078e-01 -4.53694195e+00 -5.09898563e+00 0.00000000e+00 -5.22080307e-01 -2.44386035e+00 -2.33933526e+00 -6.07230473e+00 -5.57938312e+00 0.00000000e+00 -3.59246654e-01 -3.22961659e+00 -4.07805328e+00 -6.23557527e+00 -6.58167540e+00 0.00000000e+00 -4.49938517e-01 -3.07756281e+00 -4.55936145e+00 -6.52147583e+00 -8.48193102e+00 
        </DataArray>
        <DataArray type="Float64" Name="p">
          -1.03576538e+04 -1.10522523e+04 -1.16676706e+04 -1.23677851e+04 -1.33164726e+04 -1.46776097e+04 -1.04195218e+04 -1.10615920e+04 -1.16855263e+04 -1.24134416e+04 -1.33674550e+04 -1.46696833e+04 -1.02649730e+04 -1.10400223e+04 -1.17026111e+04 -1.23921182e+04 -1.32479223e+04 -1.44094023e+04 -1.00495744e+04 -1.09726210e+04 -1.16743568e+04 -1.23137414e+04 -1.30497346e+04 -1.40412960e+04 -9.92889313e+03 -1.08444659e+04 -1.15561953e+04 -1.21882382e+04 -1.28647520e+04 -1.37098935e+04 -1.00584961e+04 -1.06406347e+04 -1.13035583e+04 -1.20255354e+04 -1.27848344e+04 -1.35597240e+04 
        </DataArray>
      </PointData>
    </Piece>
    <Piece NumberOfPoints="36" NumberOfCells="25">
      <Points>
        <DataArray type="Float64" NumberOfComponents="3" format="ascii">
          0.00000000e+00 4.00000000e+00 0.00000000e+00 
5.00000000e-01 4.00000000e+00 0.00000000e+00 
1.00000000e+00 4.00000000e+00 0.00000000e+00 
1.50000000e+00 4.00000000e+00 0.00000000e+00 
2.00000000e+00 4.00000000e+00 0.00000000e+00 
2.50000000e+00 4.00000000e+00 0.00000000e+00 
0.00000000e+00 4.19999981e+00 0.00000000e+00 
5.00000000e-01 4.19999981e+00 0.00000000e+00 
1.00000000e+00 4.19999981e+00 0.00000000e+00 
1.50000000e+00 4.19999981e+00 0.00000000e+00 
2.00000000e+00 4.19999981e+00 0.00000000e+00 
2.50000000e+00 4.19999981e+00 0.00000000e+00 
0.00000000e+00 4.40000010e+00 0.00000000e+00 
5.00000000e-01 4.40000010e+00 0.00000000e+00 
1.00000000e+00 4.40000010e+00 0.00000000e+00 
1.50000000e+00 4.40000010e+00 0.00000000e+00 
2.00000000e+00 4.40000010e+00 0.00000000e+00 
2.50000000e+00 4.40000010e+00 0.00000000e+00 
0.00000000e+00 4.59999990e+00 0.00000000e+00 
5.00000000e-01 4.59999990e+00 0.00000000e+00 
1.00000000e+00 4.59999990e+00 0.00000000e+00 
1.50000000e+00 4.59999990e+00 0.00000000e+00 
2.00000000e+00 4.59999990e+00 0.00000000e+00 
2.50000000e+00 4.59999990e+00 0.00000000e+00 
0.00000000e+00 4.80000019e+00 0.00000000e+00 
5.00000000e-01 4.80000019e+00 0.00000000e+00 
1.00000000e+00 4.80000019e+00 0.00000000e+00 
1.50000000e+00 4.80000019e+00 0.00000000e+00 
2.00000000e+00 4.80000019e+00 0.00000000e+00 
2.50000000e+00 4.80000019e+00 0.00000000e+00 
0.00000000e+00 5.00000000e+00 0.00000000e+00 
5.00000000e-01 5.00000000e+00 0.00000000e+00 
1.00000000e+00 5.00000000e+00 0.00000000e+00 
1.50000000e+00 5.00000000e+00 0.00000000e+00 
2.00000000e+00 5.00000000e+00 0.00000000e+00 
2.50000000e+00 5.00000000e+00 0.00000000e+00 

        </DataArray>
      </Points>
      <Cells>
        <DataArray type="Int32" Name="connectivity" format="ascii">
0 1 7 6
6 7 13 12
12 13 19 18
18 19 25 24
24 25 31 30
1 2 8 7
7 8 14 13
13 14 20 19
19 20 26 25
25 26 32 31
2 3 9 8
8 9 15 14
14 15 21 20
20 21 27 26
26 27 33 32
3 4 10 9
9 10 16 15
15 16 22 21
21 22 28 27
27 28 34 33
4 5 11 10
10 11 17 16
16 17 23 22
22 23 29 28
28 29 35 34

        </DataArray>
        <DataArray type="Int32" Name="offsets" format="ascii">
4 8 12 16 20 24 28 32 36 40 44 48 52 56 60 64 68 72 76 80 84 88 92 96 100 
        </DataArray>
        <DataArray type="UInt8" Name="types" format="ascii">
9 9 9 9 9 9 9 9 9 9 9 9 9 9 9 9 9 9 9 9 9 9 9 9 9 
        </DataArray>
      </Cells>
      <PointData>
        <DataArray type="Float64" Name="u">
          2.20000000e+02 2.20230950e+02 2.18564949e+02 2.19753444e+02 2.18583508e+02 2.22438686e+02 2.37600000e+02 2.37097064e+02 2.37050335e+02 2.37909602e+02 2.37715790e+02 2.38324489e+02 2.46400000e+02 2.46076050e+02 2.46400288e+02 2.46080357e+02 2.45940939e+02 2.44180193e+02 2.46400000e+02 2.46740718e+02 2.47106425e+02 2.45713685e+02 2.44857096e+02 2.41526762e+02 2.37600000e+02 2.38619664e+02 2.38244356e+02 2.36184970e+02 2.34290978e+02 2.30218935e+02 2.20000000e+02 2.20104739e+02 2.17967300e+02 2.16422523e+02 2.12863335e+02 2.11206550e+02 
        </DataArray>
        <DataArray type="Float64" Name="v">
          0.00000000e+00 -4.49938517e-01 -3.07756281e+00 -4.55936145e+00 -6.52147583e+00 -8.48193102e+00 0.00000000e+00 -8.58258206e-01 -3.09917658e+00 -3.47203450e+00 -7.66091274e+00 -7.18050400e+00 0.00000000e+00 -7.96003243e-01 -3.44073918e+00 -3.29448332e+00 -7.58860459e+00 -6.09384676e+00 0.00000000e+00 -7.24501341e-01 -3.30638894e+00 -3.51288793e+00 -6.96479300e+00 -5.34270562e+00 0.00000000e+00 -6.15029452e-01 -2.95618073e+00 -3.57188081e+00 -5.43836594e+00 -4.70874471e+00 0.00000000e+00 -5.47598327e-01 -2.00783844e+00 -2.98464263e+00 -4.02220276e+00 -4.40239243e+00 
        </DataArray>
        <DataArray type="Float64" Name="p">
          -1.05245724e+04 -1.05751649e+04 -1.10685502e+04 -1.17731352e+04 -1.24573270e+04 -1.28895328e+04 -1.01412080e+04 -1.04210264e+04 -1.09546389e+04 -1.15853080e+04 -1.21562965e+04 -1.25108670e+04 -9.63296615e+03 -1.02320455e+04 -1.08265220e+04 -1.13742524e+04 -1.18330934e+04 -1.21609017e+04 -9.15475593e+03 -1.00299606e+04 -1.06824755e+04 -1.11689477e+04 -1.15460239e+04 -1.18703511e+04 -8.86148624e+03 -9.83651017e+03 -1.05207755e+04 -1.09983733e+04 -1.13533944e+04 -1.16699299e+04 -8.90806601e+03 -9.67343271e+03 -1.03396980e+04 -1.08915086e+04 -1.13135112e+04 -1.15903525e+04 
        </DataArray>
      </PointData>
    </Piece>
    <Piece NumberOfPoints="36" NumberOfCells="25">
      <Points>
        <DataArray type="Float64" NumberOfComponents="3" format="ascii">
          0.00000000e+00 5.00000000e+00 0.00000000e+00 
5.00000000e-01 5.00000000e+00 0.00000000e+00 
1.00000000e+00 5.00000000e+00 0.00000000e+00 
1.50000000e+00 5.00000000e+00 0.00000000e+00 
2.00000000e+00 5.00000000e+00 0.00000000e+00 
2.50000000e+00 5.00000000e+00 0.00000000e+00 
0.00000000e+00 5.19999981e+00 0.00000000e+00 
5.00000000e-01 5.19999981e+00 0.00000000e+00 
1.00000000e+00 5.19999981e+00 0.00000000e+00 
1.50000000e+00 5.19999981e+00 0.00000000e+00 
2.00000000e+00 5.19999981e+00 0.00000000e+00 
2.50000000e+00 5.19999981e+00 0.00000000e+00 
0.00000000e+00 5.40000010e+00 0.00000000e+00 
5.00000000e-01 5.40000010e+00 0.00000000e+00 
1.00000000e+00 5.40000010e+00 0.00000000e+00 
1.50000000e+00 5.40000010e+00 0.00000000e+00 
2.00000000e+00 5.40000010e+00 0.00000000e+00 
2.50000000e+00 5.40000010e+00 0.00000000e+00 
0.00000000e+00 5.59999990e+00 0.00000000e+00 
5.00000000e-01 5.59999990e+00 0.00000000e+00 
1.00000000e+00 5.59999990e+00 0.00000000e+00 
1.50000000e+00 5.59999990e+00 0.00000000e+00 
2.00000000e+00 5.59999990e+00 0.00000000e+00 
2.50000000e+00 5.59999990e+00 0.00000000e+00 
0.00000000e+00 5.80000019e+00 0.00000000e+00 
5.00000000e-01 5.80000019e+00 0.00000000e+00 
1.00000000e+00 5.80000019e+00 0.00000000e+00 
1.50000000e+00 5.80000019e+00 0.00000000e+00 
2.00000000e+00 5.80000019e+00 0.00000000e+00 
2.50000000e+00 5.80000019e+00 0.00000000e+00 
0.00000000e+00 6.00000000e+00 0.00000000e+00 
5.00000000e-01 6.00000000e+00 0.00000000e+00 
1.00000000e+00 6.00000000e+00 0.00000000e+00 
1.50000000e+00 6.00000000e+00 0.00000000e+00 
2.00000000e+00 6.00000000e+00 0.00000000e+00 
2.50000000e+00 6.00000000e+00 0.00000000e+00 

        </DataArray>
      </Points>
      <Cells>
        <DataArray type="Int32" Name="connectivity" format="ascii">
0 1 7 6
6 7 13 12
12 13 19 18
18 19 25 24
24 25 31 30
1 2 8 7
7 8 14 13
13 14 20 19
19 20 26 25
25 26 32 31
2 3 9 8
8 9 15 14
14 15 21 20
20 21 27 26
26 27 33 32
3 4 10 9
9 10 16 15
15 16 22 21
21 22 28 27
27 28 34 33
4 5 11 10
10 11 17 16
16 17 23 22
22 23 29 28
28 29 35 34

        </DataArray>
        <DataArray type="Int32" Name="offsets" format="ascii">
4 8 12 16 20 24 28 32 36 40 44 48 52 56 60 64 68 72 76 80 84 88 92 96 100 
        </DataArray>
        <DataArray type="UInt8" Name="types" format="ascii">
9 9 9 9 9 9 9 9 9 9 9 9 9 9 9 9 9 9 9 9 9 9 9 9 9 
        </DataArray>
      </Cells>
      <PointData>
        <DataArray type="Float64" Name="u">
          2.20000000e+02 2.20104739e+02 2.17967300e+02 2.16422523e+02 2.12863335e+02 2.11206550e+02 1.93600000e+02 1.93847339e+02 1.93209478e+02 1.91362955e+02 1.88627796e+02 1.84713668e+02 1.58400000e+02 1.58329366e+02 1.58261573e+02 1.55925816e+02 1.54227162e+02 1.49239563e+02 1.14400000e+02 1.14329587e+02 1.14118613e+02 1.11783179e+02 1.10876175e+02 1.07322321e+02 6.16000000e+01 6.15834603e+01 6.11074830e+01 5.99146440e+01 5.90220338e+01 6.10059306e+01 0.00000000e+00 0.00000000e+00 0.00000000e+00 0.00000000e+00 0.00000000e+00 0.00000000e+00 
        </DataArray>
        <DataArray type="Float64" Name="v">
          0.00000000e+00 -5.47598327e-01 -2.00783844e+00 -2.98464263e+00 -4.02220276e+00 -4.40239243e+00 0.00000000e+00 -5.94655004e-01 -1.21180436e+00 -1.74994982e+00 -3.01572441e+00 -2.65768492e+00 0.00000000e+00 -3.40365508e-01 -8.45409238e-01 -1.36758187e+00 -1.31850512e+00 -6.29519961e-01 0.00000000e+00 -7.90304566e-02 -4.65133237e-01 -1.05684012e+00 -1.23316834e-01 7.19061829e-01 0.00000000e+00 3.75218249e-02 -1.83276736e-01 -4.79755995e-01 2.12301297e-01 1.73671265e+00 0.00000000e+00 0.00000000e+00 0.00000000e+00 0.00000000e+00 0.00000000e+00 0.00000000e+00 
        </DataArray>
        <DataArray type="Float64" Name="p">
          -9.03865897e+03 -9.61295101e+03 -1.01857737e+04 -1.07080094e+04 -1.11305407e+04 -1.14042501e+04 -8.85088893e+03 -9.54924797e+03 -1.01488986e+04 -1.06351014e+04 -1.09931168e+04 -1.12082054e+04 -8.79528046e+03 -9.51181314e+03 -1.01116257e+04 -1.05983132e+04 -1.09754707e+04 -1.12466933e+04 -8.81419794e+03 -9.49472067e+03 -1.00808087e+04 -1.05858751e+04 -1.10233330e+04 -1.14065955e+04 -8.85000574e+03 -9.49204469e+03 -1.00633013e+04 -1.05860172e+04 -1.10824341e+04 -1.15747938e+04 -8.84506822e+03 -9.49785937e+03 -1.00659572e+04 -1.05869697e+04 -1.10985047e+04 -1.16381701e+04 
        </DataArray>
      </PointData>
    </Piece>
    <Piece NumberOfPoints="36" NumberOfCells="25">
      <Points>
        <DataArray type="Float64" NumberOfComponents="3" format="ascii">
          2.50000000e+00 0.00000000e+00 0.00000000e+00 
3.00000000e+00 0.00000000e+00 0.00000000e+00 
3.50000000e+00 0.00000000e+00 0.00000000e+00 
4.00000000e+00 0.00000000e+00 0.00000000e+00 
4.50000000e+00 0.00000000e+00 0.00000000e+00 
5.00000000e+00 0.00000000e+00 0.00000000e+00 
2.50000000e+00 2.00000003e-01 0.00000000e+00 
3.00000000e+00 2.00000003e-01 0.00000000e+00 
3.50000000e+00 2.00000003e-01 0.00000000e+00 
4.00000000e+00 2.00000003e-01 0.00000000e+00 
4.50000000e+00 2.00000003e-01 0.00000000e+00 
5.00000000e+00 2.00000003e-01 0.00000000e+00 
2.50000000e+00 4.00000006e-01 0.00000000e+00 
3.00000000e+00 4.00000006e-01 0.00000000e+00 
3.50000000e+00 4.00000006e-01 0.00000000e+00 
4.00000000e+00 4.00000006e-01 0.00000000e+00 
4.50000000e+00 4.00000006e-01 0.00000000e+00 
5.00000000e+00 4.00000006e-01 0.00000000e+00 
2.50000000e+00 6.00000024e-01 0.00000000e+00 
3.00000000e+00 6.00000024e-01 0.00000000e+00 
3.50000000e+00 6.00000024e-01 0.00000000e+00 
4.00000000e+00 6.00000024e-01 0.00000000e+00 
4.50000000e+00 6.00000024e-01 0.00000000e+00 
5.00000000e+00 6.00000024e-01 0.00000000e+00 
2.50000000e+00 8.00000012e-01 0.00000000e+00 
3.00000000e+00 8.00000012e-01 0.00000000e+00 
3.50000000e+00 8.00000012e-01 0.00000000e+00 
4.00000000e+00 8.00000012e-01 0.00000000e+00 
4.50000000e+00 8.00000012e-01 0.00000000e+00 
5.00000000e+00 8.00000012e-01 0.00000000e+00 
2.50000000e+00 1.00000000e+00 0.00000000e+00 
3.00000000e+00 1.00000000e+00 0.00000000e+00 
3.50000000e+00 1.00000000e+00 0.00000000e+00 
4.00000000e+00 1.00000000e+00 0.00000000e+00 
4.50000000e+00 1.00000000e+00 0.00000000e+00 
5.00000000e+00 1.00000000e+00 0.00000000e+00 

        </DataArray>
      </Points>
      <Cells>
        <DataArray type="Int32" Name="connectivity" format="ascii">
0 1 7 6
6 7 13 12
12 13 19 18
18 19 25 24
24 25 31 30
1 2 8 7
7 8 14 13
13 14 20 19
19 20 26 25
25 26 32 31
2 3 9 8
8 9 15 14
14 15 21 20
20 21 27 26
26 27 33 32
3 4 10 9
9 10 16 15
15 16 22 21
21 22 28 27
27 28 34 33
4 5 11 10
10 11 17 16
16 17 23 22
22 23 29 28
28 29 35 34

        </DataArray>
        <DataArray type="Int32" Name="offsets" format="ascii">
4 8 12 16 20 24 28 32 36 40 44 48 52 56 60 64 68 72 76 80 84 88 92 96 100 
        </DataArray>
        <DataArray type="UInt8" Name="types" format="ascii">
9 9 9 9 9 9 9 9 9 9 9 9 9 9 9 9 9 9 9 9 9 9 9 9 9 
        </DataArray>
      </Cells>
      <PointData>
        <DataArray type="Float64" Name="u">
          0.00000000e+00 0.00000000e+00 0.00000000e+00 0.00000000e+00 0.00000000e+00 0.00000000e+00 0.00000000e+00 -4.41721810e-01 -1.79130912e+00 -3.39754874e+00 -5.01345555e+00 -6.83726041e+00 0.00000000e+00 -1.00325965e+00 -3.43510786e+00 -6.26942764e+00 -9.05471291e+00 -1.17609167e+01 0.00000000e+00 -1.52658116e+00 -4.83269985e+00 -8.53480742e+00 -1.20182527e+01 -1.51563407e+01 0.00000000e+00 -1.99961516e+00 -5.88485798e+00 -1.00475277e+01 -1.38587267e+01 -1.70230451e+01 0.00000000e+00 -2.51410448e+00 -6.51030109e+00 -1.06389261e+01 -1.44023492e+01 -1.74909246e+01 
        </DataArray>
        <DataArray type="Float64" Name="v">
          0.00000000e+00 0.00000000e+00 0.00000000e+00 0.00000000e+00 0.00000000e+00 0.00000000e+00 0.00000000e+00 1.88381791e-01 3.48750801e-01 3.29681710e-01 3.39945978e-01 5.00379786e-01 0.00000000e+00 7.62771855e-01 1.25104922e+00 1.21754108e+00 1.23184115e+00 1.44797057e+00 0.00000000e+00 1.67892928e+00 2.56483360e+00 2.53545660e+00 2.43185864e+00 2.65691855e+00 0.00000000e+00 2.88371479e+00 4.14088415e+00 4.12071600e+00 3.77952051e+00 3.91012677e+00 0.00000000e+00 4.33905644e+00 5.78684984e+00 5.74051530e+00 5.23240751e+00 4.88722559e+00 
        </DataArray>
        <DataArray type="Float64" Name="p">
          -1.50741170e+04 -1.51111348e+04 -1.51214722e+04 -1.51040626e+04 -1.50578399e+04 -1.49817376e+04 -1.50769076e+04 -1.50998869e+04 -1.51050057e+04 -1.50866693e+04 -1.50392828e+04 -1.49572513e+04 -1.50686069e+04 -1.50913431e+04 -1.50939366e+04 -1.50734479e+04 -1.50269375e+04 -1.49514660e+04 -1.50558302e+04 -1.50869991e+04 -1.50897441e+04 -1.50667673e+04 -1.50207707e+04 -1.49544565e+04 -1.50451924e+04 -1.50883506e+04 -1.50939078e+04 -1.50689964e+04 -1.50207490e+04 -1.49562980e+04 -1.50433086e+04 -1.50968931e+04 -1.51079069e+04 -1.50825041e+04 -1.50268388e+04 -1.49470652e+04 
        </DataArray>
      </PointData>
    </Piece>
    <Piece NumberOfPoints="36" NumberOfCells="25">
      <Points>
        <DataArray type="Float64" NumberOfComponents="3" format="ascii">
          2.50000000e+00 1.00000000e+00 0.00000000e+00 
3.00000000e+00 1.00000000e+00 0.00000000e+00 
3.50000000e+00 1.00000000e+00 0.00000000e+00 
4.00000000e+00 1.00000000e+00 0.00000000e+00 
4.50000000e+00 1.00000000e+00 0.00000000e+00 
5.00000000e+00 1.00000000e+00 0.00000000e+00 
2.50000000e+00 1.20000005e+00 0.00000000e+00 
3.00000000e+00 1.20000005e+00 0.00000000e+00 
3.50000000e+00 1.20000005e+00 0.00000000e+00 
4.00000000e+00 1.20000005e+00 0.00000000e+00 
4.50000000e+00 1.20000005e+00 0.00000000e+00 
5.00000000e+00 1.20000005e+00 0.00000000e+00 
2.50000000e+00 1.39999998e+00 0.00000000e+00 
3.00000000e+00 1.39999998e+00 0.00000000e+00 
3.50000000e+00 1.39999998e+00 0.00000000e+00 
4.00000000e+00 1.39999998e+00 0.00000000e+00 
4.50000000e+00 1.39999998e+00 0.00000000e+00 
5.00000000e+00 1.39999998e+00 0.00000000e+00 
2.50000000e+00 1.60000002e+00 0.00000000e+00 
3.00000000e+00 1.60000002e+00 0.00000000e+00 
3.50000000e+00 1.60000002e+00 0.00000000e+00 
4.00000000e+00 1.60000002e+00 0.00000000e+00 
4.50000000e+00 1.60000002e+00 0.00000000e+00 
5.00000000e+00 1.60000002e+00 0.00000000e+00 
2.50000000e+00 1.79999995e+00 0.00000000e+00 
3.00000000e+00 1.79999995e+00 0.00000000e+00 
3.50000000e+00 1.79999995e+00 0.00000000e+00 
4.00000000e+00 1.79999995e+00 0.00000000e+00 
4.50000000e+00 1.79999995e+00 0.00000000e+00 
5.00000000e+00 1.79999995e+00 0.00000000e+00 
2.50000000e+00 2.00000000e+00 0.00000000e+00 
3.00000000e+00 2.00000000e+00 0.00000000e+00 
3.50000000e+00 2.00000000e+00 0.00000000e+00 
4.00000000e+00 2.00000000e+00 0.00000000e+00 
4.50000000e+00 2.00000000e+00 0.00000000e+00 
5.00000000e+00 2.00000000e+00 0.00000000e+00 

        </DataArray>
      </Points>
      <Cells>
        <DataArray type="Int32" Name="connectivity" format="ascii">
0 1 7 6
6 7 13 12
12 13 19 18
18 19 25 24
24 25 31 30
1 2 8 7
7 8 14 13
13 14 20 19
19 20 26 25
25 26 32 31
2 3 9 8
8 9 15 14
14 15 21 20
20 21 27 26
26 27 33 32
3 4 10 9
9 10 16 15
15 16 22 21
21 22 28 27
27 28 34 33
4 5 11 10
10 11 17 16
16 17 23 22
22 23 29 28
28 29 35 34

        </DataArray>
        <DataArray type="Int32" Name="offsets" format="ascii">
4 8 12 16 20 24 28 32 36 40 44 48 52 56 60 64 68 72 76 80 84 88 92 96 100 
        </DataArray>
        <DataArray type="UInt8" Name="types" format="ascii">
9 9 9 9 9 9 9 9 9 9 9 9 9 9 9 9 9 9 9 9 9 9 9 9 9 
        </DataArray>
      </Cells>
      <PointData>
        <DataArray type="Float64" Name="u">
          0.00000000e+00 -2.51410448e+00 -6.51030109e+00 -1.06389261e+01 -1.44023492e+01 -1.74909246e+01 0.00000000e+00 -2.65429163e+00 -7.27302812e+00 -1.16105036e+01 -1.50015987e+01 -1.71268298e+01 0.00000000e+00 -2.82987364e+00 -7.57058749e+00 -1.15746469e+01 -1.40991530e+01 -1.55006472e+01 0.00000000e+00 -2.91291199e+00 -7.28687977e+00 -1.04001665e+01 -1.17013466e+01 -1.21462932e+01 0.00000000e+00 -2.81537504e+00 -6.21200079e+00 -7.83646821e+00 -7.57672432e+00 -6.79515652e+00 0.00000000e+00 -2.36110054e+00 -3.93120805e+00 -3.37683560e+00 -1.15512119e+00 6.49575143e-01 
        </DataArray>
        <DataArray type="Float64" Name="v">
          0.00000000e+00 4.33905644e+00 5.78684984e+00 5.74051530e+00 5.23240751e+00 4.88722559e+00 0.00000000e+00 6.01797361e+00 7.53739612e+00 7.25210988e+00 6.64160324e+00 5.21250961e+00 0.00000000e+00 7.79245304e+00 9.39018218e+00 8.69941936e+00 7.61588868e+00 5.63834955e+00 0.00000000e+00 9.59997537e+00 1.10779317e+01 9.80558232e+00 8.13675595e+00 5.97576407e+00 0.00000000e+00 1.13197297e+01 1.23559131e+01 1.03714183e+01 8.14800338e+00 6.00928554e+00 0.00000000e+00 1.27460412e+01 1.28973790e+01 1.01545992e+01 7.61192467e+00 5.59113913e+00 
        </DataArray>
        <DataArray type="Float64" Name="p">
          -1.50776617e+04 -1.51438326e+04 -1.51587703e+04 -1.51292135e+04 -1.50619010e+04 -1.49635717e+04 -1.51089288e+04 -1.51612742e+04 -1.51690205e+04 -1.51403690e+04 -1.50835207e+04 -1.50066768e+04 -1.51443872e+04 -1.51912759e+04 -1.51934907e+04 -1.51627541e+04 -1.51107886e+04 -1.50493164e+04 -1.51934313e+04 -1.52346780e+04 -1.52289528e+04 -1.51917905e+04 -1.51387259e+04 -1.50852939e+04 -1.52654553e+04 -1.52923206e+04 -1.52721786e+04 -1.52228997e+04 -1.51623542e+04 -1.51084126e+04 -1.53698536e+04 -1.53650439e+04 -1.53199401e+04 -1.52515034e+04 -1.51766950e+04 -1.51124761e+04 
        </DataArray>
      </PointData>
    </Piece>
    <Piece NumberOfPoints="36" NumberOfCells="25">
      <Points>
        <DataArray type="Float64" NumberOfComponents="3" format="ascii">
          2.50000000e+00 2.00000000e+00 0.00000000e+00 
3.00000000e+00 2.00000000e+00 0.00000000e+00 
3.50000000e+00 2.00000000e+00 0.00000000e+00 
4.00000000e+00 2.00000000e+00 0.00000000e+00 
4.50000000e+00 2.00000000e+00 0.00000000e+00 
5.00000000e+00 2.00000000e+00 0.00000000e+00 
2.50000000e+00 2.20000005e+00 0.00000000e+00 
3.00000000e+00 2.20000005e+00 0.00000000e+00 
3.50000000e+00 2.20000005e+00 0.00000000e+00 
4.00000000e+00 2.20000005e+00 0.00000000e+00 
4.50000000e+00 2.20000005e+00 0.00000000e+00 
5.00000000e+00 2.20000005e+00 0.00000000e+00 
2.50000000e+00 2.40000010e+00 0.00000000e+00 
3.00000000e+00 2.40000010e+00 0.00000000e+00 
3.50000000e+00 2.40000010e+00 0.00000000e+00 
4.00000000e+00 2.40000010e+00 0.00000000e+00 
4.50000000e+00 2.40000010e+00 0.00000000e+00 
5.00000000e+00 2.40000010e+00 0.00000000e+00 
2.50000000e+00 2.59999990e+00 0.00000000e+00 
3.00000000e+00 2.59999990e+00 0.00000000e+00 
3.50000000e+00 2.59999990e+00 0.00000000e+00 
4.00000000e+00 2.59999990e+00 0.00000000e+00 
4.50000000e+00 2.59999990e+00 0.00000000e+00 
5.00000000e+00 2.59999990e+00 0.00000000e+00 
2.50000000e+00 2.79999995e+00 0.00000000e+00 
3.00000000e+00 2.79999995e+00 0.00000000e+00 
3.50000000e+00 2.79999995e+00 0.00000000e+00 
4.00000000e+00 2.79999995e+00 0.00000000e+00 
4.50000000e+00 2.79999995e+00 0.00000000e+00 
5.00000000e+00 2.79999995e+00 0.00000000e+00 
2.50000000e+00 3.00000000e+00 0.00000000e+00 
3.00000000e+00 3.00000000e+00 0.00000000e+00 
3.50000000e+00 3.00000000e+00 0.00000000e+00 
4.00000000e+00 3.00000000e+00 0.00000000e+00 
4.50000000e+00 3.00000000e+00 0.00000000e+00 
5.00000000e+00 3.00000000e+00 0.00000000e+00 

        </DataArray>
      </Points>
      <Cells>
        <DataArray type="Int32" Name="connectivity" format="ascii">
0 1 7 6
6 7 13 12
12 13 19 18
18 19 25 24
24 25 31 30
1 2 8 7
7 8 14 13
13 14 20 19
19 20 26 25
25 26 32 31
2 3 9 8
8 9 15 14
14 15 21 20
20 21 27 26
26 27 33 32
3 4 10 9
9 10 16 15
15 16 22 21
21 22 28 27
27 28 34 33
4 5 11 10
10 11 17 16
16 17 23 22
22 23 29 28
28 29 35 34

        </DataArray>
        <DataArray type="Int32" Name="offsets" format="ascii">
4 8 12 16 20 24 28 32 36 40 44 48 52 56 60 64 68 72 76 80 84 88 92 96 100 
        </DataArray>
        <DataArray type="UInt8" Name="types" format="ascii">
9 9 9 9 9 9 9 9 9 9 9 9 9 9 9 9 9 9 9 9 9 9 9 9 9 
        </DataArray>
      </Cells>
      <PointData>
        <DataArray type="Float64" Name="u">
          0.00000000e+00 -2.36110054e+00 -3.93120805e+00 -3.37683560e+00 -1.15512119e+00 6.49575143e-01 0.00000000e+00 -2.98101157e+00 -2.59201574e+00 6.12281634e-01 5.87379544e+00 1.04476072e+01 0.00000000e+00 -2.36090970e+00 1.61959491e+00 8.47653735e+00 1.66860562e+01 2.37689426e+01 0.00000000e+00 7.44317803e-01 1.11343281e+01 2.22686953e+01 3.21510049e+01 4.17824540e+01 0.00000000e+00 1.12937899e+01 2.92368694e+01 4.36749420e+01 5.36111957e+01 6.49442847e+01 0.00000000e+00 4.38966130e+01 5.72045645e+01 7.22802479e+01 8.28591977e+01 9.43563444e+01 
        </DataArray>
        <DataArray type="Float64" Name="v">
          0.00000000e+00 1.27460412e+01 1.28973790e+01 1.01545992e+01 7.61192467e+00 5.59113913e+00 0.00000000e+00 1.40210744e+01 1.23723094e+01 8.72732157e+00 6.45375152e+00 3.82402398e+00 0.00000000e+00 1.48335977e+01 1.04745539e+01 6.07505851e+00 4.14614463e+00 1.39470782e+00 0.00000000e+00 1.41519111e+01 5.79131561e+00 2.34732448e+00 1.37289960e+00 -2.18844380e+00 0.00000000e+00 9.83262678e+00 -7.49983769e-01 -1.85409591e+00 -2.26319117e+00 -6.60453088e+00 0.00000000e+00 -2.31564213e+00 -3.72510671e+00 -6.20667379e+00 -8.68904414e+00 -9.85322026e+00 
        </DataArray>
        <DataArray type="Float64" Name="p">
          -1.55522063e+04 -1.56139312e+04 -1.55190546e+04 -1.53572754e+04 -1.52182923e+04 -1.51918044e+04 -1.57540183e+04 -1.56771281e+04 -1.55350324e+04 -1.53768101e+04 -1.52515399e+04 -1.52083007e+04 -1.59137268e+04 -1.57824640e+04 -1.55785815e+04 -1.53755455e+04 -1.52468221e+04 -1.52658775e+04 -1.62783832e+04 -1.59006624e+04 -1.55892701e+04 -1.53631512e+04 -1.52412508e+04 -1.52425137e+04 -1.70950392e+04 -1.60024468e+04 -1.55066663e+04 -1.53492970e+04 -1.52719380e+04 -1.50161883e+04 -1.86107465e+04 -1.60585407e+04 -1.52703385e+04 -1.53436525e+04 -1.53759955e+04 -1.44648801e+04 
        </DataArray>
      </PointData>
    </Piece>
    <Piece NumberOfPoints="36" NumberOfCells="25">
      <Points>
        <DataArray type="Float64" NumberOfComponents="3" format="ascii">
          2.50000000e+00 3.00000000e+00 0.00000000e+00 
3.00000000e+00 3.00000000e+00 0.00000000e+00 
3.50000000e+00 3.00000000e+00 0.00000000e+00 
4.00000000e+00 3.00000000e+00 0.00000000e+00 
4.50000000e+00 3.00000000e+00 0.00000000e+00 
5.00000000e+00 3.00000000e+00 0.00000000e+00 
2.50000000e+00 3.20000005e+00 0.00000000e+00 
3.00000000e+00 3.20000005e+00 0.00000000e+00 
3.50000000e+00 3.20000005e+00 0.00000000e+00 
4.00000000e+00 3.20000005e+00 0.00000000e+00 
4.50000000e+00 3.20000005e+00 0.00000000e+00 
5.00000000e+00 3.20000005e+00 0.00000000e+00 
2.50000000e+00 3.40000010e+00 0.00000000e+00 
3.00000000e+00 3.40000010e+00 0.00000000e+00 
3.50000000e+00 3.40000010e+00 0.00000000e+00 
4.00000000e+00 3.40000010e+00 0.00000000e+00 
4.50000000e+00 3.40000010e+00 0.00000000e+00 
5.00000000e+00 3.40000010e+00 0.00000000e+00 
2.50000000e+00 3.59999990e+00 0.00000000e+00 
3.00000000e+00 3.59999990e+00 0.00000000e+00 
3.50000000e+00 3.59999990e+00 0.00000000e+00 
4.00000000e+00 3.59999990e+00 0.00000000e+00 
4.50000000e+00 3.59999990e+00 0.00000000e+00 
5.00000000e+00 3.59999990e+00 0.00000000e+00 
2.50000000e+00 3.79999995e+00 0.00000000e+00 
3.00000000e+00 3.79999995e+00 0.00000000e+00 
3.50000000e+00 3.79999995e+00 0.00000000e+00 
4.00000000e+00 3.79999995e+00 0.00000000e+00 
4.50000000e+00 3.79999995e+00 0.00000000e+00 
5.00000000e+00 3.79999995e+00 0.00000000e+00 
2.50000000e+00 4.00000000e+00 0.00000000e+00 
3.00000000e+00 4.00000000e+00 0.00000000e+00 
3.50000000e+00 4.00000000e+00 0.00000000e+00 
4.00000000e+00 4.00000000e+00 0.00000000e+00 
4.50000000e+00 4.00000000e+00 0.00000000e+00 
5.00000000e+00 4.00000000e+00 0.00000000e+00 

        </DataArray>
      </Points>
      <Cells>
        <DataArray type="Int32" Name="connectivity" format="ascii">
0 1 7 6
6 7 13 12
12 13 19 18
18 19 25 24
24 25 31 30
1 2 8 7
7 8 14 13
13 14 20 19
19 20 26 25
25 26 32 31
2 3 9 8
8 9 15 14
14 15 21 20
20 21 27 26
26 27 33 32
3 4 10 9
9 10 16 15
15 16 22 21
21 22 28 27
27 28 34 33
4 5 11 10
10 11 17 16
16 17 23 22
22 23 29 28
28 29 35 34

        </DataArray>
        <DataArray type="Int32" Name="offsets" format="ascii">
4 8 12 16 20 24 28 32 36 40 44 48 52 56 60 64 68 72 76 80 84 88 92 96 100 
        </DataArray>
        <DataArray type="UInt8" Name="types" format="ascii">
9 9 9 9 9 9 9 9 9 9 9 9 9 9 9 9 9 9 9 9 9 9 9 9 9 
        </DataArray>
      </Cells>
      <PointData>
        <DataArray type="Float64" Name="u">