<?xml version="1.0"?>
<VTKFile type="UnstructuredGrid" version="0.1" byte_order="LittleEndian">
  <UnstructuredGrid>
    <Piece NumberOfPoints="36" NumberOfCells="25">
      <Points>
        <DataArray type="Float64" NumberOfComponents="3" format="ascii">
          0.00000000e+00 3.00000000e+00 0.00000000e+00 
5.00000000e-01 3.00000000e+00 0.00000000e+00 
1.00000000e+00 3.00000000e+00 0.00000000e+00 
1.50000000e+00 3.00000000e+00 0.00000000e+00 
2.00000000e+00 3.00000000e+00 0.00000000e+00 
2.50000000e+00 3.00000000e+00 0.00000000e+00 
0.00000000e+00 3.20000005e+00 0.00000000e+00 
5.00000000e-01 3.20000005e+00 0.00000000e+00 
1.00000000e+00 3.20000005e+00 0.00000000e+00 
1.50000000e+00 3.20000005e+00 0.00000000e+00 
2.00000000e+00 3.20000005e+00 0.00000000e+00 
2.50000000e+00 3.20000005e+00 0.00000000e+00 
0.00000000e+00 3.40000010e+00 0.00000000e+00 
5.00000000e-01 3.40000010e+00 0.00000000e+00 
1.00000000e+00 3.40000010e+00 0.00000000e+00 
1.50000000e+00 3.40000010e+00 0.00000000e+00 
2.00000000e+00 3.40000010e+00 0.00000000e+00 
2.50000000e+00 3.40000010e+00 0.00000000e+00 
0.00000000e+00 3.59999990e+00 0.00000000e+00 
5.00000000e-01 3.59999990e+00 0.00000000e+00 
1.00000000e+00 3.59999990e+00 0.00000000e+00 
1.50000000e+00 3.59999990e+00 0.00000000e+00 
2.00000000e+00 3.59999990e+00 0.00000000e+00 
2.50000000e+00 3.59999990e+00 0.00000000e+00 
0.00000000e+00 3.79999995e+00 0.00000000e+00 
5.00000000e-01 3.79999995e+00 0.00000000e+00 
1.00000000e+00 3.79999995e+00 0.00000000e+00 
1.50000000e+00 3.79999995e+00 0.00000000e+00 
2.00000000e+00 3.79999995e+00 0.00000000e+00 
2.50000000e+00 3.79999995e+00 0.00000000e+00 
0.00000000e+00 4.00000000e+00 0.00000000e+00 
5.00000000e-01 4.00000000e+00 0.00000000e+00 
1.00000000e+00 4.00000000e+00 0.00000000e+00 
1.50000000e+00 4.00000000e+00 0.00000000e+00 
2.00000000e+00 4.00000000e+00 0.00000000e+00 
2.50000000e+00 4.00000000e+00 0.00000000e+00 

        </DataArray>
      </Points>
      <Cells>
        <DataArray type="Int32" Name="connectivity" format="ascii">
0 1 7 6
6 7 13 12
12 13 19 18
18 19 25 24
24 25 31 30
1 2 8 7
7 8 14 13
13 14 20 19
19 20 26 25
25 26 32 31
2 3 9 8
8 9 15 14
14 15 21 20
20 21 27 26
26 27 33 32
3 4 10 9
9 10 16 15
15 16 22 21
21 22 28 27
27 28 34 33
4 5 11 10
10 11 17 16
16 17 23 22
22 23 29 28
28 29 35 34

        </DataArray>
        <DataArray type="Int32" Name="offsets" format="ascii">
4 8 12 16 20 24 28 32 36 40 44 48 52 56 60 64 68 72 76 80 84 88 92 96 100 
        </DataArray>
        <DataArray type="UInt8" Name="types" format="ascii">
9 9 9 9 9 9 9 9 9 9 9 9 9 9 9 9 9 9 9 9 9 9 9 9 9 
        </DataArray>
      </Cells>
      <PointData>
        <DataArray type="Float64" Name="u">
          0.00000000e+00 0.00000000e+00 0.00000000e+00 0.00000000e+00 0.00000000e+00 0.00000000e+00 6.16000000e+01 6.16398641e+01 6.19829918e+01 6.19513630e+01 6.33186671e+01 6.89188336e+01 1.14400000e+02 1.14374817e+02 1.15359328e+02 1.14283044e+02 1.16600811e+02 1.16534667e+02 1.58400000e+02 1.58337409e+02 1.59522238e+02 1.58318893e+02 1.59671045e+02 1.57962783e+02 1.93600000e+02 1.93935280e+02 1.94213925e+02 1.93442886e+02 1.93162557e+02 1.91879305e+02 2.20000000e+02 2.20179445e+02 2.18272681e+02 2.18124472e+02 2.15816231e+02 2.16998697e+02 
        </DataArray>
        <DataArray type="Float64" Name="v">
          0.00000000e+00 0.00000000e+00 0.00000000e+00 0.00000000e+00 0.00000000e+00 0.00000000e+00 0.00000000e+00 -1.71446628e-01 -9.57807236e-02 1.96489149e-01 -9.44172504e-01 -2.78256867e+00 0.00000000e+00 -2.84648130e-01 -4.23388242e-01 7.97016851e-02 -2.04837633e+00 -2.68574376e+00 0.00000000e+00 -9.17154502e-02 -7.51702121e-01 -4.72164684e-01 -2.19065589e+00 -2.22352559e+00 0.00000000e+00 1.01769430e-01 -9.68310598e-01 -1.11426226e+00 -1.46182949e+00 -1.65019106e+00 0.00000000e+00 3.66796048e-02 -4.99353132e-01 -7.52946033e-01 -1.11662208e+00 -1.86697901e+00 
        </DataArray>
        <DataArray type="Float64" Name="p">
          -1.12600014e+04 -1.19336411e+04 -1.25281990e+04 -1.31363444e+04 -1.38507469e+04 -1.47640760e+04 -1.12908093e+04 -1.19348663e+04 -1.25358215e+04 -1.31580030e+04 -1.38657385e+04 -1.47233559e+04 -1.12027771e+04 -1.19258352e+04 -1.25523890e+04 -1.31488009e+04 -1.37814331e+04 -1.45166481e+04 -1.10960650e+04 -1.19019383e+04 -1.25531706e+04 -1.31186759e+04 -1.36673680e+04 -1.42681609e+04 -1.10708333e+04 -1.18585657e+04 -1.25134353e+04 -1.30775657e+04 -1.35930803e+04 -1.41021026e+04 -1.12272423e+04 -1.17911077e+04 -1.24084524e+04 -1.30354083e+04 -1.36281072e+04 -1.41426812e+04 
        </DataArray>
      </PointData>
    </Piece>
    <Piece NumberOfPoints="36" NumberOfCells="25">
      <Points>
        <DataArray type="Float64" NumberOfComponents="3" format="ascii">
          0.00000000e+00 4.00000000e+00 0.00000000e+00 
5.00000000e-01 4.00000000e+00 0.00000000e+00 
1.00000000e+00 4.00000000e+00 0.00000000e+00 
1.50000000e+00 4.00000000e+00 0.00000000e+00 
2.00000000e+00 4.00000000e+00 0.00000000e+00 
2.50000000e+00 4.00000000e+00 0.00000000e+00 
0.00000000e+00 4.19999981e+00 0.00000000e+00 
5.00000000e-01 4.19999981e+00 0.00000000e+00 
1.00000000e+00 4.19999981e+00 0.00000000e+00 
1.50000000e+00 4.19999981e+00 0.00000000e+00 
2.00000000e+00 4.19999981e+00 0.00000000e+00 
2.50000000e+00 4.19999981e+00 0.00000000e+00 
0.00000000e+00 4.40000010e+00 0.00000000e+00 
5.00000000e-01 4.40000010e+00 0.00000000e+00 
1.00000000e+00 4.40000010e+00 0.00000000e+00 
1.50000000e+00 4.40000010e+00 0.00000000e+00 
2.00000000e+00 4.40000010e+00 0.00000000e+00 
2.50000000e+00 4.40000010e+00 0.00000000e+00 
0.00000000e+00 4.59999990e+00 0.00000000e+00 
5.00000000e-01 4.59999990e+00 0.00000000e+00 
1.00000000e+00 4.59999990e+00 0.00000000e+00 
1.50000000e+00 4.59999990e+00 0.00000000e+00 
2.00000000e+00 4.59999990e+00 0.00000000e+00 
2.50000000e+00 4.59999990e+00 0.00000000e+00 
0.00000000e+00 4.80000019e+00 0.00000000e+00 
5.00000000e-01 4.80000019e+00 0.00000000e+00 
1.00000000e+00 4.80000019e+00 0.00000000e+00 
1.50000000e+00 4.80000019e+00 0.00000000e+00 
2.00000000e+00 4.80000019e+00 0.00000000e+00 
2.50000000e+00 4.80000019e+00 0.00000000e+00 
0.00000000e+00 5.00000000e+00 0.00000000e+00 
5.00000000e-01 5.00000000e+00 0.00000000e+00 
1.00000000e+00 5.00000000e+00 0.00000000e+00 
1.50000000e+00 5.00000000e+00 0.00000000e+00 
2.00000000e+00 5.00000000e+00 0.00000000e+00 
2.50000000e+00 5.00000000e+00 0.00000000e+00 

        </DataArray>
      </Points>
      <Cells>
        <DataArray type="Int32" Name="connectivity" format="ascii">
0 1 7 6
6 7 13 12
12 13 19 18
18 19 25 24
24 25 31 30
1 2 8 7
7 8 14 13
13 14 20 19
19 20 26 25
25 26 32 31
2 3 9 8
8 9 15 14
14 15 21 20
20 21 27 26
26 27 33 32
3 4 10 9
9 10 16 15
15 16 22 21
21 22 28 27
27 28 34 33
4 5 11 10
10 11 17 16
16 17 23 22
22 23 29 28
28 29 35 34

        </DataArray>
        <DataArray type="Int32" Name="offsets" format="ascii">
4 8 12 16 20 24 28 32 36 40 44 48 52 56 60 64 68 72 76 80 84 88 92 96 100 
        </DataArray>
        <DataArray type="UInt8" Name="types" format="ascii">
9 9 9 9 9 9 9 9 9 9 9 9 9 9 9 9 9 9 9 9 9 9 9 9 9 
        </DataArray>
      </Cells>
      <PointData>
        <DataArray type="Float64" Name="u">
          2.20000000e+02 2.20179445e+02 2.18272681e+02 2.18124472e+02 2.15816231e+02 2.16998697e+02 2.37600000e+02 2.37829063e+02 2.37621522e+02 2.37090321e+02 2.36124452e+02 2.34541049e+02 2.46400000e+02 2.46351537e+02 2.46671823e+02 2.45928326e+02 2.45492842e+02 2.43174760e+02 2.46400000e+02 2.46351537e+02 2.46671823e+02 2.45928326e+02 2.45492842e+02 2.43174760e+02 2.37600000e+02 2.37829063e+02 2.37621522e+02 2.37090321e+02 2.36124452e+02 2.34541049e+02 2.20000000e+02 2.20179445e+02 2.18272681e+02 2.18124472e+02 2.15816231e+02 2.16998697e+02 
        </DataArray>
        <DataArray type="Float64" Name="v">
          0.00000000e+00 3.66796048e-02 -4.99353132e-01 -7.52946033e-01 -1.11662208e+00 -1.86697901e+00 0.00000000e+00 -1.24566898e-01 -3.97064816e-02 4.02201633e-02 -9.95758914e-01 -1.19159629e+00 0.00000000e+00 -4.18893215e-02 -4.78511822e-02 9.72283148e-02 -2.70069151e-01 -3.77398291e-01 0.00000000e+00 4.18893075e-02 4.78511178e-02 -9.72283791e-02 2.70069008e-01 3.77398175e-01 0.00000000e+00 1.24566884e-01 3.97064235e-02 -4.02202309e-02 9.95758784e-01 1.19159617e+00 0.00000000e+00 -3.66796133e-02 4.99353082e-01 7.52945959e-01 1.11662198e+00 1.86697888e+00 
        </DataArray>
        <DataArray type="Float64" Name="p">
          -1.13707489e+04 -1.17875654e+04 -1.23703887e+04 -1.30017474e+04 -1.35641700e+04 -1.39401851e+04 -1.11813664e+04 -1.17919776e+04 -1.24023616e+04 -1.29671710e+04 -1.34410586e+04 -1.37786770e+04 -1.10866751e+04 -1.17941838e+04 -1.24183481e+04 -1.29498828e+04 -1.33795029e+04 -1.36979230e+04 -1.10866751e+04 -1.17941837e+04 -1.24183481e+04 -1.29498828e+04 -1.33795029e+04 -1.36979229e+04 -1.11813664e+04 -1.17919776e+04 -1.24023616e+04 -1.29671710e+04 -1.34410586e+04 -1.37786770e+04 -1.13707489e+04 -1.17875654e+04 -1.23703887e+04 -1.30017474e+04 -1.35641700e+04 -1.39401850e+04 
        </DataArray>
      </PointData>
    </Piece>
    <Piece NumberOfPoints="36" NumberOfCells="25">
      <Points>
        <DataArray type="Float64" NumberOfComponents="3" format="ascii">
          0.00000000e+00 5.00000000e+00 0.00000000e+00 
5.00000000e-01 5.00000000e+00 0.00000000e+00 
1.00000000e+00 5.00000000e+00 0.00000000e+00 
1.50000000e+00 5.00000000e+00 0.00000000e+00 
2.00000000e+00 5.00000000e+00 0.00000000e+00 
2.50000000e+00 5.00000000e+00 0.00000000e+00 
0.00000000e+00 5.19999981e+00 0.00000000e+00 
5.00000000e-01 5.19999981e+00 0.00000000e+00 
1.00000000e+00 5.19999981e+00 0.00000000e+00 
1.50000000e+00 5.19999981e+00 0.00000000e+00 
2.00000000e+00 5.19999981e+00 0.00000000e+00 
2.50000000e+00 5.19999981e+00 0.00000000e+00 
0.00000000e+00 5.40000010e+00 0.00000000e+00 
5.00000000e-01 5.40000010e+00 0.00000000e+00 
1.00000000e+00 5.40000010e+00 0.00000000e+00 
1.50000000e+00 5.40000010e+00 0.00000000e+00 
2.00000000e+00 5.40000010e+00 0.00000000e+00 
2.50000000e+00 5.40000010e+00 0.00000000e+00 
0.00000000e+00 5.59999990e+00 0.00000000e+00 
5.00000000e-01 5.59999990e+00 0.00000000e+00 
1.00000000e+00 5.59999990e+00 0.00000000e+00 
1.50000000e+00 5.59999990e+00 0.00000000e+00 
2.00000000e+00 5.59999990e+00 0.00000000e+00 
2.50000000e+00 5.59999990e+00 0.00000000e+00 
0.00000000e+00 5.80000019e+00 0.00000000e+00 
5.00000000e-01 5.80000019e+00 0.00000000e+00 
1.00000000e+00 5.80000019e+00 0.00000000e+00 
1.50000000e+00 5.80000019e+00 0.00000000e+00 
2.00000000e+00 5.80000019e+00 0.00000000e+00 
2.50000000e+00 5.80000019e+00 0.00000000e+00 
0.00000000e+00 6.00000000e+00 0.00000000e+00 
5.00000000e-01 6.00000000e+00 0.00000000e+00 
1.00000000e+00 6.00000000e+00 0.00000000e+00 
1.50000000e+00 6.00000000e+00 0.00000000e+00 
2.00000000e+00 6.00000000e+00 0.00000000e+00 
2.50000000e+00 6.00000000e+00 0.00000000e+00 

        </DataArray>
      </Points>
      <Cells>
        <DataArray type="Int32" Name="connectivity" format="ascii">
0 1 7 6
6 7 13 12
12 13 19 18
18 19 25 24
24 25 31 30
1 2 8 7
7 8 14 13
13 14 20 19
19 20 26 25
25 26 32 31
2 3 9 8
8 9 15 14
14 15 21 20
20 21 27 26
26 27 33 32
3 4 10 9
9 10 16 15
15 16 22 21
21 22 28 27
27 28 34 33
4 5 11 10
10 11 17 16
16 17 23 22
22 23 29 28
28 29 35 34

        </DataArray>
        <DataArray type="Int32" Name="offsets" format="ascii">
4 8 12 16 20 24 28 32 36 40 44 48 52 56 60 64 68 72 76 80 84 88 92 96 100 
        </DataArray>
        <DataArray type="UInt8" Name="types" format="ascii">
9 9 9 9 9 9 9 9 9 9 9 9 9 9 9 9 9 9 9 9 9 9 9 9 9 
        </DataArray>
      </Cells>
      <PointData>
        <DataArray type="Float64" Name="u">
          2.20000000e+02 2.20179445e+02 2.18272681e+02 2.18124472e+02 2.15816231e+02 2.16998697e+02 1.93600000e+02 1.93935280e+02 1.94213925e+02 1.93442886e+02 1.93162557e+02 1.91879304e+02 1.58400000e+02 1.58337409e+02 1.59522238e+02 1.58318893e+02 1.59671045e+02 1.57962782e+02 1.14400000e+02 1.14374817e+02 1.15359328e+02 1.14283044e+02 1.16600811e+02 1.16534667e+02 6.16000000e+01 6.16398641e+01 6.19829918e+01 6.19513630e+01 6.33186670e+01 6.89188334e+01 0.00000000e+00 0.00000000e+00 0.00000000e+00 0.00000000e+00 0.00000000e+00 0.00000000e+00 
        </DataArray>
        <DataArray type="Float64" Name="v">
          0.00000000e+00 -3.66796133e-02 4.99353082e-01 7.52945959e-01 1.11662198e+00 1.86697888e+00 0.00000000e+00 -1.01769438e-01 9.68310553e-01 1.11426220e+00 1.46182939e+00 1.65019096e+00 0.00000000e+00 9.17154420e-02 7.51702087e-01 4.72164647e-01 2.19065582e+00 2.22352552e+00 0.00000000e+00 2.84648123e-01 4.23388223e-01 -7.97017048e-02 2.04837628e+00 2.68574371e+00 0.00000000e+00 1.71446625e-01 9.57807172e-02 -1.96489155e-01 9.44172487e-01 2.78256864e+00 0.00000000e+00 0.00000000e+00 0.00000000e+00 0.00000000e+00 0.00000000e+00 0.00000000e+00 
        </DataArray>
        <DataArray type="Float64" Name="p">
          -1.12272423e+04 -1.17911077e+04 -1.24084524e+04 -1.30354083e+04 -1.36281072e+04 -1.41426812e+04 -1.10708333e+04 -1.18585657e+04 -1.25134353e+04 -1.30775657e+04 -1.35930803e+04 -1.41021025e+04 -1.10960650e+04 -1.19019382e+04 -1.25531706e+04 -1.31186758e+04 -1.36673680e+04 -1.42681609e+04 -1.12027770e+04 -1.19258352e+04 -1.25523890e+04 -1.31488009e+04 -1.37814331e+04 -1.45166481e+04 -1.12908093e+04 -1.19348662e+04 -1.25358215e+04 -1.31580030e+04 -1.38657385e+04 -1.47233559e+04 -1.12600014e+04 -1.19336411e+04 -1.25281989e+04 -1.31363444e+04 -1.38507469e+04 -1.47640760e+04 
        </DataArray>
      </PointData>
    </Piece>
    <Piece NumberOfPoints="36" NumberOfCells="25">
      <Points>
        <DataArray type="Float64" NumberOfComponents="3" format="ascii">
          2.50000000e+00 0.00000000e+00 0.00000000e+00 
3.00000000e+00 0.00000000e+00 0.00000000e+00 
3.50000000e+00 0.00000000e+00 0.00000000e+00 
4.00000000e+00 0.00000000e+00 0.00000000e+00 
4.50000000e+00 0.00000000e+00 0.00000000e+00 
5.00000000e+00 0.00000000e+00 0.00000000e+00 
2.50000000e+00 2.00000003e-01 0.00000000e+00 
3.00000000e+00 2.00000003e-01 0.00000000e+00 
3.50000000e+00 2.00000003e-01 0.00000000e+00 
4.00000000e+00 2.00000003e-01 0.00000000e+00 
4.50000000e+00 2.00000003e-01 0.00000000e+00 
5.00000000e+00 2.00000003e-01 0.00000000e+00 
2.50000000e+00 4.00000006e-01 0.00000000e+00 
3.00000000e+00 4.00000006e-01 0.00000000e+00 
3.50000000e+00 4.00000006e-01 0.00000000e+00 
4.00000000e+00 4.00000006e-01 0.00000000e+00 
4.50000000e+00 4.00000006e-01 0.00000000e+00 
5.00000000e+00 4.00000006e-01 0.00000000e+00 
2.50000000e+00 6.00000024e-01 0.00000000e+00 
3.00000000e+00 6.00000024e-01 0.00000000e+00 
3.50000000e+00 6.00000024e-01 0.00000000e+00 
4.00000000e+00 6.00000024e-01 0.00000000e+00 
4.50000000e+00 6.00000024e-01 0.00000000e+00 
5.00000000e+00 6.00000024e-01 0.00000000e+00 
2.50000000e+00 8.00000012e-01 0.00000000e+00 
3.00000000e+00 8.00000012e-01 0.00000000e+00 
3.50000000e+00 8.00000012e-01 0.00000000e+00 
4.00000000e+00 8.00000012e-01 0.00000000e+00 
4.50000000e+00 8.00000012e-01 0.00000000e+00 
5.00000000e+00 8.00000012e-01 0.00000000e+00 
2.50000000e+00 1.00000000e+00 0.00000000e+00 
3.00000000e+00 1.00000000e+00 0.00000000e+00 
3.50000000e+00 1.00000000e+00 0.00000000e+00 
4.00000000e+00 1.00000000e+00 0.00000000e+00 
4.50000000e+00 1.00000000e+00 0.00000000e+00 
5.00000000e+00 1.00000000e+00 0.00000000e+00 

        </DataArray>
      </Points>
      <Cells>
        <DataArray type="Int32" Name="connectivity" format="ascii">
0 1 7 6
6 7 13 12
12 13 19 18
18 19 25 24
24 25 31 30
1 2 8 7
7 8 14 13
13 14 20 19
19 20 26 25
25 26 32 31
2 3 9 8
8 9 15 14
14 15 21 20
20 21 27 26
26 27 33 32
3 4 10 9
9 10 16 15
15 16 22 21
21 22 28 27
27 28 34 33
4 5 11 10
10 11 17 16
16 17 23 22
22 23 29 28
28 29 35 34

        </DataArray>
        <DataArray type="Int32" Name="offsets" format="ascii">
4 8 12 16 20 24 28 32 36 40 44 48 52 56 60 64 68 72 76 80 84 88 92 96 100 
        </DataArray>
        <DataArray type="UInt8" Name="types" format="ascii">
9 9 9 9 9 9 9 9 9 9 9 9 9 9 9 9 9 9 9 9 9 9 9 9 9 
        </DataArray>
      </Cells>
      <PointData>
        <DataArray type="Float64" Name="u">
          0.00000000e+00 0.00000000e+00 0.00000000e+00 0.00000000e+00 0.00000000e+00 0.00000000e+00 0.00000000e+00 -3.54544975e-01 -1.48923599e+00 -2.78668204e+00 -4.02959572e+00 -5.30580128e+00 0.00000000e+00 -8.28274442e-01 -2.87256264e+00 -5.19342575e+00 -7.38330448e+00 -9.34689121e+00 0.00000000e+00 -1.28722592e+00 -4.08854536e+00 -7.17343485e+00 -9.99946725e+00 -1.23925648e+01 0.00000000e+00 -1.72348363e+00 -5.07058782e+00 -8.62195958e+00 -1.18354993e+01 -1.44355201e+01 0.00000000e+00 -2.21888400e+00 -5.75921819e+00 -9.41028264e+00 -1.27371491e+01 -1.55616325e+01 
        </DataArray>
        <DataArray type="Float64" Name="v">
          0.00000000e+00 0.00000000e+00 0.00000000e+00 0.00000000e+00 0.00000000e+00 0.00000000e+00 0.00000000e+00 1.50276800e-01 2.92148638e-01 2.70184187e-01 2.34610934e-01 3.67624922e-01 0.00000000e+00 6.22805369e-01 1.04742234e+00 9.88903849e-01 8.88716609e-01 1.03551344e+00 0.00000000e+00 1.39276269e+00 2.15381198e+00 2.06523763e+00 1.81458870e+00 1.89358542e+00 0.00000000e+00 2.42569950e+00 3.49704431e+00 3.38254343e+00 2.91650566e+00 2.81899800e+00 0.00000000e+00 3.70002946e+00 4.93209081e+00 4.77440944e+00 4.17637520e+00 3.64430549e+00 
        </DataArray>
        <DataArray type="Float64" Name="p">
          -1.45397665e+04 -1.45741025e+04 -1.45832829e+04 -1.45693953e+04 -1.45345271e+04 -1.44807660e+04 -1.45429855e+04 -1.45647403e+04 -1.45696234e+04 -1.45556724e+04 -1.45209246e+04 -1.44634176e+04 -1.45364490e+04 -1.45572247e+04 -1.45603632e+04 -1.45451446e+04 -1.45108489e+04 -1.44567560e+04 -1.45254161e+04 -1.45529007e+04 -1.45565958e+04 -1.45395185e+04 -1.45046861e+04 -1.44551157e+04 -1.45151459e+04 -1.45531135e+04 -1.45594146e+04 -1.45405004e+04 -1.45028222e+04 -1.44528312e+04 -1.45108974e+04 -1.45592080e+04 -1.45699130e+04 -1.45497966e+04 -1.45056433e+04 -1.44442373e+04 
        </DataArray>
      </PointData>
    </Piece>
    <Piece NumberOfPoints="36" NumberOfCells="25">
      <Points>
        <DataArray type="Float64" NumberOfComponents="3" format="ascii">
          2.50000000e+00 1.00000000e+00 0.00000000e+00 
3.00000000e+00 1.00000000e+00 0.00000000e+00 
3.50000000e+00 1.00000000e+00 0.00000000e+00 
4.00000000e+00 1.00000000e+00 0.00000000e+00 
4.50000000e+00 1.00000000e+00 0.00000000e+00 
5.00000000e+00 1.00000000e+00 0.00000000e+00 
2.50000000e+00 1.20000005e+00 0.00000000e+00 
3.00000000e+00 1.20000005e+00 0.00000000e+00 
3.50000000e+00 1.20000005e+00 0.00000000e+00 
4.00000000e+00 1.20000005e+00 0.00000000e+00 
4.50000000e+00 1.20000005e+00 0.00000000e+00 
5.00000000e+00 1.20000005e+00 0.00000000e+00 
2.50000000e+00 1.39999998e+00 0.00000000e+00 
3.00000000e+00 1.39999998e+00 0.00000000e+00 
3.50000000e+00 1.39999998e+00 0.00000000e+00 
4.00000000e+00 1.39999998e+00 0.00000000e+00 
4.50000000e+00 1.39999998e+00 0.00000000e+00 
5.00000000e+00 1.39999998e+00 0.00000000e+00 
2.50000000e+00 1.60000002e+00 0.00000000e+00 
3.00000000e+00 1.60000002e+00 0.00000000e+00 
3.50000000e+00 1.60000002e+00 0.00000000e+00 
4.00000000e+00 1.60000002e+00 0.00000000e+00 
4.50000000e+00 1.60000002e+00 0.00000000e+00 
5.00000000e+00 1.60000002e+00 0.00000000e+00 
2.50000000e+00 1.79999995e+00 0.00000000e+00 
3.00000000e+00 1.79999995e+00 0.00000000e+00 
3.50000000e+00 1.79999995e+00 0.00000000e+00 
4.00000000e+00 1.79999995e+00 0.00000000e+00 
4.50000000e+00 1.79999995e+00 0.00000000e+00 
5.00000000e+00 1.79999995e+00 0.00000000e+00 
2.50000000e+00 2.00000000e+00 0.00000000e+00 
3.00000000e+00 2.00000000e+00 0.00000000e+00 
3.50000000e+00 2.00000000e+00 0.00000000e+00 
4.00000000e+00 2.00000000e+00 0.00000000e+00 
4.50000000e+00 2.00000000e+00 0.00000000e+00 
5.00000000e+00 2.00000000e+00 0.00000000e+00 

        </DataArray>
      </Points>
      <Cells>
        <DataArray type="Int32" Name="connectivity" format="ascii">
0 1 7 6
6 7 13 12
12 13 19 18
18 19 25 24
24 25 31 30
1 2 8 7
7 8 14 13
13 14 20 19
19 20 26 25
25 26 32 31
2 3 9 8
8 9 15 14
14 15 21 20
20 21 27 26
26 27 33 32
3 4 10 9
9 10 16 15
15 16 22 21
21 22 28 27
27 28 34 33
4 5 11 10
10 11 17 16
16 17 23 22
22 23 29 28
28 29 35 34

        </DataArray>
        <DataArray type="Int32" Name="offsets" format="ascii">
4 8 12 16 20 24 28 32 36 40 44 48 52 56 60 64 68 72 76 80 84 88 92 96 100 
        </DataArray>
        <DataArray type="UInt8" Name="types" format="ascii">
9 9 9 9 9 9 9 9 9 9 9 9 9 9 9 9 9 9 9 9 9 9 9 9 9 
        </DataArray>
      </Cells>
      <PointData>
        <DataArray type="Float64" Name="u">
          0.00000000e+00 -2.21888400e+00 -5.75921819e+00 -9.41028264e+00 -1.27371491e+01 -1.55616325e+01 0.00000000e+00 -2.37702771e+00 -6.57136467e+00 -1.05435167e+01 -1.37472019e+01 -1.60661495e+01 0.00000000e+00 -2.58799353e+00 -7.00635730e+00 -1.08720868e+01 -1.35914812e+01 -1.55645668e+01 0.00000000e+00 -2.72563311e+00 -6.96249096e+00 -1.02766856e+01 -1.22394618e+01 -1.37043771e+01 0.00000000e+00 -2.71083991e+00 -6.24874048e+00 -8.52803175e+00 -9.49217421e+00 -1.02605828e+01 0.00000000e+00 -2.40817053e+00 -4.49821280e+00 -5.18549158e+00 -4.89953052e+00 -5.17250260e+00 
        </DataArray>
        <DataArray type="Float64" Name="v">
          0.00000000e+00 3.70002946e+00 4.93209081e+00 4.77440944e+00 4.17637520e+00 3.64430549e+00 0.00000000e+00 5.18990821e+00 6.50673087e+00 6.15503166e+00 5.46047926e+00 4.18553933e+00 0.00000000e+00 6.80588290e+00 8.22789728e+00 7.54085601e+00 6.49590099e+00 4.86537561e+00 0.00000000e+00 8.49375638e+00 9.86949779e+00 8.72602407e+00 7.26593826e+00 5.55528041e+00 0.00000000e+00 1.01477307e+01 1.12262636e+01 9.56232123e+00 7.73679745e+00 6.11396413e+00 0.00000000e+00 1.15883976e+01 1.20163324e+01 9.87308423e+00 7.89339691e+00 6.44484327e+00 
        </DataArray>
        <DataArray type="Float64" Name="p">
          -1.45355559e+04 -1.45975846e+04 -1.46103872e+04 -1.45843158e+04 -1.45297224e+04 -1.44569589e+04 -1.45621426e+04 -1.46108545e+04 -1.46175277e+04 -1.45922231e+04 -1.45450011e+04 -1.44859226e+04 -1.45914161e+04 -1.46351166e+04 -1.46369021e+04 -1.46093733e+04 -1.45651304e+04 -1.45167742e+04 -1.46318401e+04 -1.46714616e+04 -1.46662855e+04 -1.46325767e+04 -1.45865999e+04 -1.45446201e+04 -1.46918784e+04 -1.47209803e+04 -1.47034529e+04 -1.46586435e+04 -1.46058992e+04 -1.45645669e+04 -1.47799949e+04 -1.47847631e+04 -1.47461794e+04 -1.46843841e+04 -1.46195179e+04 -1.45717212e+04 
        </DataArray>
      </PointData>
    </Piece>
    <Piece NumberOfPoints="36" NumberOfCells="25">
      <Points>
        <DataArray type="Float64" NumberOfComponents="3" format="ascii">
          2.50000000e+00 2.00000000e+00 0.00000000e+00 
3.00000000e+00 2.00000000e+00 0.00000000e+00 
3.50000000e+00 2.00000000e+00 0.00000000e+00 
4.00000000e+00 2.00000000e+00 0.00000000e+00 
4.50000000e+00 2.00000000e+00 0.00000000e+00 
5.00000000e+00 2.00000000e+00 0.00000000e+00 
2.50000000e+00 2.20000005e+00 0.00000000e+00 
3.00000000e+00 2.20000005e+00 0.00000000e+00 
3.50000000e+00 2.20000005e+00 0.00000000e+00 
4.00000000e+00 2.20000005e+00 0.00000000e+00 
4.50000000e+00 2.20000005e+00 0.00000000e+00 
5.00000000e+00 2.20000005e+00 0.00000000e+00 
2.50000000e+00 2.40000010e+00 0.00000000e+00 
3.00000000e+00 2.40000010e+00 0.00000000e+00 
3.50000000e+00 2.40000010e+00 0.00000000e+00 
4.00000000e+00 2.40000010e+00 0.00000000e+00 
4.50000000e+00 2.40000010e+00 0.00000000e+00 
5.00000000e+00 2.40000010e+00 0.00000000e+00 
2.50000000e+00 2.59999990e+00 0.00000000e+00 
3.00000000e+00 2.59999990e+00 0.00000000e+00 
3.50000000e+00 2.59999990e+00 0.00000000e+00 
4.00000000e+00 2.59999990e+00 0.00000000e+00 
4.50000000e+00 2.59999990e+00 0.00000000e+00 
5.00000000e+00 2.59999990e+00 0.00000000e+00 
2.50000000e+00 2.79999995e+00 0.00000000e+00 
3.00000000e+00 2.79999995e+00 0.00000000e+00 
3.50000000e+00 2.79999995e+00 0.00000000e+00 
4.00000000e+00 2.79999995e+00 0.00000000e+00 
4.50000000e+00 2.79999995e+00 0.00000000e+00 
5.00000000e+00 2.79999995e+00 0.00000000e+00 
2.50000000e+00 3.00000000e+00 0.00000000e+00 
3.00000000e+00 3.00000000e+00 0.00000000e+00 
3.50000000e+00 3.00000000e+00 0.00000000e+00 
4.00000000e+00 3.00000000e+00 0.00000000e+00 
4.50000000e+00 3.00000000e+00 0.00000000e+00 
5.00000000e+00 3.00000000e+00 0.00000000e+00 

        </DataArray>
      </Points>
      <Cells>
        <DataArray type="Int32" Name="connectivity" format="ascii">
0 1 7 6
6 7 13 12
12 13 19 18
18 19 25 24
24 25 31 30
1 2 8 7
7 8 14 13
13 14 20 19
19 20 26 25
25 26 32 31
2 3 9 8
8 9 15 14
14 15 21 20
20 21 27 26
26 27 33 32
3 4 10 9
9 10 16 15
15 16 22 21
21 22 28 27
27 28 34 33
4 5 11 10
10 11 17 16
16 17 23 22
22 23 29 28
28 29 35 34

        </DataArray>
        <DataArray type="Int32" Name="offsets" format="ascii">
4 8 12 16 20 24 28 32 36 40 44 48 52 56 60 64 68 72 76 80 84 88 92 96 100 
        </DataArray>
        <DataArray type="UInt8" Name="types" format="ascii">
9 9 9 9 9 9 9 9 9 9 9 9 9 9 9 9 9 9 9 9 9 9 9 9 9 
        </DataArray>
      </Cells>
      <PointData>
        <DataArray type="Float64" Name="u">
          0.00000000e+00 -2.40817053e+00 -4.49821280e+00 -5.18549158e+00 -4.89953052e+00 -5.17250260e+00 0.00000000e+00 -3.05669306e+00 -3.60027148e+00 -2.27718969e+00 2.12007453e-01 1.73023717e+00 0.00000000e+00 -2.60985613e+00 -2.34858511e-01 3.84659579e+00 8.42284915e+00 1.13562329e+01 0.00000000e+00 2.03164430e-03 7.67254342e+00 1.49376198e+01 2.04641400e+01 2.48273891e+01 0.00000000e+00 9.10556871e+00 2.30561582e+01 3.27516983e+01 3.76692306e+01 4.29356036e+01 0.00000000e+00 3.78711223e+01 4.74061639e+01 5.76194242e+01 6.24681631e+01 6.67955425e+01 
        </DataArray>
        <DataArray type="Float64" Name="v">
          0.00000000e+00 1.15883976e+01 1.20163324e+01 9.87308423e+00 7.89339691e+00 6.44484327e+00 0.00000000e+00 1.29535527e+01 1.19436998e+01 9.28142815e+00 7.71494594e+00 5.80631156e+00 0.00000000e+00 1.39873795e+01 1.07651872e+01 7.75992548e+00 6.78572524e+00 4.90390703e+00 0.00000000e+00 1.37950934e+01 7.33250861e+00 5.53581276e+00 5.68865026e+00 3.33170110e+00 0.00000000e+00 1.05364127e+01 2.40276186e+00 3.04991996e+00 4.12384281e+00 1.34263208e+00 0.00000000e+00 5.12685328e-01 8.00335614e-01 5.29375244e-01 4.94041950e-01 2.14978217e-01 
        </DataArray>
        <DataArray type="Float64" Name="p">
          -1.49445634e+04 -1.50024769e+04 -1.49196394e+04 -1.47777362e+04 -1.46584526e+04 -1.46434736e+04 -1.51210125e+04 -1.50584675e+04 -1.49380294e+04 -1.48015578e+04 -1.46909122e+04 -1.46479520e+04 -1.52678527e+04 -1.51530185e+04 -1.49780104e+04 -1.48035479e+04 -1.46903509e+04 -1.46991391e+04 -1.56009860e+04 -1.52615044e+04 -1.49888574e+04 -1.47945431e+04 -1.46900596e+04 -1.46869050e+04 -1.63363143e+04 -1.53592994e+04 -1.49198456e+04 -1.47853799e+04 -1.47233292e+04 -1.45011201e+04 -1.76897397e+04 -1.54217778e+04 -1.47202502e+04 -1.47868951e+04 -1.48234506e+04 -1.40316549e+04 
        </DataArray>
      </PointData>
    </Piece>
    <Piece NumberOfPoints="36" NumberOfCells="25">
      <Points>
        <DataArray type="Float64" NumberOfComponents="3" format="ascii">
          2.50000000e+00 3.00000000e+00 0.00000000e+00 
3.00000000e+00 3.00000000e+00 0.00000000e+00 
3.50000000e+00 3.00000000e+00 0.00000000e+00 
4.00000000e+00 3.00000000e+00 0.00000000e+00 
4.50000000e+00 3.00000000e+00 0.00000000e+00 
5.00000000e+00 3.00000000e+00 0.00000000e+00 
2.50000000e+00 3.20000005e+00 0.00000000e+00 
3.00000000e+00 3.20000005e+00 0.00000000e+00 
3.50000000e+00 3.20000005e+00 0.00000000e+00 
4.00000000e+00 3.20000005e+00 0.00000000e+00 
4.50000000e+00 3.20000005e+00 0.00000000e+00 
5.00000000e+00 3.20000005e+00 0.00000000e+00 
2.50000000e+00 3.40000010e+00 0.00000000e+00 
3.00000000e+00 3.40000010e+00 0.00000000e+00 
3.50000000e+00 3.40000010e+00 0.00000000e+00 
4.00000000e+00 3.40000010e+00 0.00000000e+00 
4.50000000e+00 3.40000010e+00 0.00000000e+00 
5.00000000e+00 3.40000010e+00 0.00000000e+00 
2.50000000e+00 3.59999990e+00 0.00000000e+00 
3.00000000e+00 3.59999990e+00 0.00000000e+00 
3.50000000e+00 3.59999990e+00 0.00000000e+00 
4.00000000e+00 3.59999990e+00 0.00000000e+00 
4.50000000e+00 3.59999990e+00 0.00000000e+00 
5.00000000e+00 3.59999990e+00 0.00000000e+00 
2.50000000e+00 3.79999995e+00 0.00000000e+00 
3.00000000e+00 3.79999995e+00 0.00000000e+00 
3.50000000e+00 3.79999995e+00 0.00000000e+00 
4.00000000e+00 3.79999995e+00 0.00000000e+00 
4.50000000e+00 3.79999995e+00 0.00000000e+00 
5.00000000e+00 3.79999995e+00 0.00000000e+00 
2.50000000e+00 4.00000000e+00 0.00000000e+00 
3.00000000e+00 4.00000000e+00 0.00000000e+00 
3.50000000e+00 4.00000000e+00 0.00000000e+00 
4.00000000e+00 4.00000000e+00 0.00000000e+00 
4.50000000e+00 4.00000000e+00 0.00000000e+00 
5.00000000e+00 4.00000000e+00 0.00000000e+00 

        </DataArray>
      </Points>
      <Cells>
        <DataArray type="Int32" Name="connectivity" format="ascii">
0 1 7 6
6 7 13 12
12 13 19 18
18 19 25 24
24 25 31 30
1 2 8 7
7 8 14 13
13 14 20 19
19 20 26 25
25 26 32 31
2 3 9 8
8 9 15 14
14 15 21 20
20 21 27 26
26 27 33 32
3 4 10 9
9 10 16 15
15 16 22 21
21 22 28 27
27 28 34 33
4 5 11 10
10 11 17 16
16 17 23 22
22 23 29 28
28 29 35 34

        </DataArray>
        <DataArray type="Int32" Name="offsets" format="ascii">
4 8 12 16 20 24 28 32 36 40 44 48 52 56 60 64 68 72 76 80 84 88 92 96 100 
        </DataArray>
        <DataArray type="UInt8" Name="types" format="ascii">
9 9 9 9 9 9 9 9 9 9 9 9 9 9 9 9 9 9 9 9 9 9 9 9 9 
        </DataArray>
      </Cells>
      <PointData>
        <DataArray type="Float64" Name="u">