<?xml version="1.0"?>
<VTKFile type="UnstructuredGrid" version="0.1" byte_order="LittleEndian">
  <UnstructuredGrid>
    <Piece NumberOfPoints="36" NumberOfCells="25">
      <Points>
        <DataArray type="Float64" NumberOfComponents="3" format="ascii">
          0.00000000e+00 3.00000000e+00 0.00000000e+00 
5.00000000e-01 3.00000000e+00 0.00000000e+00 
1.00000000e+00 3.00000000e+00 0.00000000e+00 
1.50000000e+00 3.00000000e+00 0.00000000e+00 
2.00000000e+00 3.00000000e+00 0.00000000e+00 
2.50000000e+00 3.00000000e+00 0.00000000e+00 
0.00000000e+00 3.20000005e+00 0.00000000e+00 
5.00000000e-01 3.20000005e+00 0.00000000e+00 
1.00000000e+00 3.20000005e+00 0.00000000e+00 
1.50000000e+00 3.20000005e+00 0.00000000e+00 
2.00000000e+00 3.20000005e+00 0.00000000e+00 
2.50000000e+00 3.20000005e+00 0.00000000e+00 
0.00000000e+00 3.40000010e+00 0.00000000e+00 
5.00000000e-01 3.40000010e+00 0.00000000e+00 
1.00000000e+00 3.40000010e+00 0.00000000e+00 
1.50000000e+00 3.40000010e+00 0.00000000e+00 
2.00000000e+00 3.40000010e+00 0.00000000e+00 
2.50000000e+00 3.40000010e+00 0.00000000e+00 
0.00000000e+00 3.59999990e+00 0.00000000e+00 
5.00000000e-01 3.59999990e+00 0.00000000e+00 
1.00000000e+00 3.59999990e+00 0.00000000e+00 
1.50000000e+00 3.59999990e+00 0.00000000e+00 
2.00000000e+00 3.59999990e+00 0.00000000e+00 
2.50000000e+00 3.59999990e+00 0.00000000e+00 
0.00000000e+00 3.79999995e+00 0.00000000e+00 
5.00000000e-01 3.79999995e+00 0.00000000e+00 
1.00000000e+00 3.79999995e+00 0.00000000e+00 
1.50000000e+00 3.79999995e+00 0.00000000e+00 
2.00000000e+00 3.79999995e+00 0.00000000e+00 
2.50000000e+00 3.79999995e+00 0.00000000e+00 
0.00000000e+00 4.00000000e+00 0.00000000e+00 
5.00000000e-01 4.00000000e+00 0.00000000e+00 
1.00000000e+00 4.00000000e+00 0.00000000e+00 
1.50000000e+00 4.00000000e+00 0.00000000e+00 
2.00000000e+00 4.00000000e+00 0.00000000e+00 
2.50000000e+00 4.00000000e+00 0.00000000e+00 

        </DataArray>
      </Points>
      <Cells>
        <DataArray type="Int32" Name="connectivity" format="ascii">
0 1 7 6
6 7 13 12
12 13 19 18
18 19 25 24
24 25 31 30
1 2 8 7
7 8 14 13
13 14 20 19
19 20 26 25
25 26 32 31
2 3 9 8
8 9 15 14
14 15 21 20
20 21 27 26
26 27 33 32
3 4 10 9
9 10 16 15
15 16 22 21
21 22 28 27
27 28 34 33
4 5 11 10
10 11 17 16
16 17 23 22
22 23 29 28
28 29 35 34

        </DataArray>
        <DataArray type="Int32" Name="offsets" format="ascii">
4 8 12 16 20 24 28 32 36 40 44 48 52 56 60 64 68 72 76 80 84 88 92 96 100 
        </DataArray>
        <DataArray type="UInt8" Name="types" format="ascii">
9 9 9 9 9 9 9 9 9 9 9 9 9 9 9 9 9 9 9 9 9 9 9 9 9 
        </DataArray>
      </Cells>
      <PointData>
        <DataArray type="Float64" Name="u">
          0.00000000e+00 0.00000000e+00 0.00000000e+00 0.00000000e+00 0.00000000e+00 0.00000000e+00 6.16000000e+01 6.20377248e+01 6.26642448e+01 6.40904193e+01 6.63644672e+01 7.31802767e+01 1.14400000e+02 1.14871535e+02 1.15965364e+02 1.17028718e+02 1.20695771e+02 1.24363076e+02 1.58400000e+02 1.58703113e+02 1.59916050e+02 1.60693846e+02 1.63636178e+02 1.66533992e+02 1.93600000e+02 1.93824017e+02 1.94821541e+02 1.95371063e+02 1.97235755e+02 1.99336813e+02 2.20000000e+02 2.20193813e+02 2.20929793e+02 2.21019212e+02 2.22241505e+02 2.22754453e+02 
        </DataArray>
        <DataArray type="Float64" Name="v">
          0.00000000e+00 0.00000000e+00 0.00000000e+00 0.00000000e+00 0.00000000e+00 0.00000000e+00 0.00000000e+00 -3.37632932e-02 -1.03141838e-01 -6.26849288e-01 -6.17689167e-01 -4.95901678e+00 0.00000000e+00 -4.46257344e-01 -5.50095863e-01 -1.21460841e+00 -2.61563774e+00 -6.30368455e+00 0.00000000e+00 -6.98782135e-01 -1.11013932e+00 -1.97674569e+00 -4.00147718e+00 -7.65348639e+00 0.00000000e+00 -8.22042921e-01 -1.60951740e+00 -2.83534860e+00 -4.87864406e+00 -8.25333445e+00 0.00000000e+00 -9.44064414e-01 -1.97304762e+00 -3.34922637e+00 -5.40315902e+00 -8.43328591e+00 
        </DataArray>
        <DataArray type="Float64" Name="p">
          -4.64007065e+03 -5.34097033e+03 -6.00648326e+03 -6.71525228e+03 -7.54592024e+03 -8.57712999e+03 -4.69039099e+03 -5.35243419e+03 -6.01061597e+03 -6.73656740e+03 -7.60191954e+03 -8.67830347e+03 -4.68293325e+03 -5.34876946e+03 -6.00972391e+03 -6.72154769e+03 -7.53999189e+03 -8.52080758e+03 -4.63326111e+03 -5.32676418e+03 -5.99050533e+03 -6.66569310e+03 -7.39353600e+03 -8.21524256e+03 -4.55693825e+03 -5.28320642e+03 -5.93965850e+03 -6.56450353e+03 -7.19595057e+03 -7.87220864e+03 -4.46952835e+03 -5.21488424e+03 -5.84388167e+03 -6.41347893e+03 -6.98063430e+03 -7.60230608e+03 
        </DataArray>
      </PointData>
    </Piece>
    <Piece NumberOfPoints="36" NumberOfCells="25">
      <Points>
        <DataArray type="Float64" NumberOfComponents="3" format="ascii">
          0.00000000e+00 4.00000000e+00 0.00000000e+00 
5.00000000e-01 4.00000000e+00 0.00000000e+00 
1.00000000e+00 4.00000000e+00 0.00000000e+00 
1.50000000e+00 4.00000000e+00 0.00000000e+00 
2.00000000e+00 4.00000000e+00 0.00000000e+00 
2.50000000e+00 4.00000000e+00 0.00000000e+00 
0.00000000e+00 4.19999981e+00 0.00000000e+00 
5.00000000e-01 4.19999981e+00 0.00000000e+00 
1.00000000e+00 4.19999981e+00 0.00000000e+00 
1.50000000e+00 4.19999981e+00 0.00000000e+00 
2.00000000e+00 4.19999981e+00 0.00000000e+00 
2.50000000e+00 4.19999981e+00 0.00000000e+00 
0.00000000e+00 4.40000010e+00 0.00000000e+00 
5.00000000e-01 4.40000010e+00 0.00000000e+00 
1.00000000e+00 4.40000010e+00 0.00000000e+00 
1.50000000e+00 4.40000010e+00 0.00000000e+00 
2.00000000e+00 4.40000010e+00 0.00000000e+00 
2.50000000e+00 4.40000010e+00 0.00000000e+00 
0.00000000e+00 4.59999990e+00 0.00000000e+00 
5.00000000e-01 4.59999990e+00 0.00000000e+00 
1.00000000e+00 4.59999990e+00 0.00000000e+00 
1.50000000e+00 4.59999990e+00 0.00000000e+00 
2.00000000e+00 4.59999990e+00 0.00000000e+00 
2.50000000e+00 4.59999990e+00 0.00000000e+00 
0.00000000e+00 4.80000019e+00 0.00000000e+00 
5.00000000e-01 4.80000019e+00 0.00000000e+00 
1.00000000e+00 4.80000019e+00 0.00000000e+00 
1.50000000e+00 4.80000019e+00 0.00000000e+00 
2.00000000e+00 4.80000019e+00 0.00000000e+00 
2.50000000e+00 4.80000019e+00 0.00000000e+00 
0.00000000e+00 5.00000000e+00 0.00000000e+00 
5.00000000e-01 5.00000000e+00 0.00000000e+00 
1.00000000e+00 5.00000000e+00 0.00000000e+00 
1.50000000e+00 5.00000000e+00 0.00000000e+00 
2.00000000e+00 5.00000000e+00 0.00000000e+00 
2.50000000e+00 5.00000000e+00 0.00000000e+00 

        </DataArray>
      </Points>
      <Cells>
        <DataArray type="Int32" Name="connectivity" format="ascii">
0 1 7 6
6 7 13 12
12 13 19 18
18 19 25 24
24 25 31 30
1 2 8 7
7 8 14 13
13 14 20 19
19 20 26 25
25 26 32 31
2 3 9 8
8 9 15 14
14 15 21 20
20 21 27 26
26 27 33 32
3 4 10 9
9 10 16 15
15 16 22 21
21 22 28 27
27 28 34 33
4 5 11 10
10 11 17 16
16 17 23 22
22 23 29 28
28 29 35 34

        </DataArray>
        <DataArray type="Int32" Name="offsets" format="ascii">
4 8 12 16 20 24 28 32 36 40 44 48 52 56 60 64 68 72 76 80 84 88 92 96 100 
        </DataArray>
        <DataArray type="UInt8" Name="types" format="ascii">
9 9 9 9 9 9 9 9 9 9 9 9 9 9 9 9 9 9 9 9 9 9 9 9 9 
        </DataArray>
      </Cells>
      <PointData>
        <DataArray type="Float64" Name="u">
          2.20000000e+02 2.20193813e+02 2.20929793e+02 2.21019212e+02 2.22241505e+02 2.22754453e+02 2.37600000e+02 2.37746213e+02 2.38192389e+02 2.37966857e+02 2.38359474e+02 2.38018734e+02 2.46400000e+02 2.46505004e+02 2.46670072e+02 2.46127321e+02 2.45834569e+02 2.44688038e+02 2.46400000e+02 2.46441173e+02 2.46372705e+02 2.45522143e+02 2.44657648e+02 2.42813988e+02 2.37600000e+02 2.37559045e+02 2.37311189e+02 2.36163207e+02 2.34845621e+02 2.32413413e+02 2.20000000e+02 2.19889816e+02 2.19498321e+02 2.18053661e+02 2.16449598e+02 2.13454107e+02 
        </DataArray>
        <DataArray type="Float64" Name="v">
          0.00000000e+00 -9.44064414e-01 -1.97304762e+00 -3.34922637e+00 -5.40315902e+00 -8.43328591e+00 0.00000000e+00 -1.01234981e+00 -2.18949019e+00 -3.61817104e+00 -5.54446203e+00 -8.21219042e+00 0.00000000e+00 -1.04429253e+00 -2.25079850e+00 -3.64384985e+00 -5.37926366e+00 -7.65825333e+00 0.00000000e+00 -1.03532512e+00 -2.19812298e+00 -3.47500124e+00 -4.96461661e+00 -6.80563286e+00 0.00000000e+00 -9.73801115e-01 -2.02022378e+00 -3.12248459e+00 -4.30881406e+00 -5.64463713e+00 0.00000000e+00 -8.52934518e-01 -1.76284658e+00 -2.65197992e+00 -3.45756253e+00 -4.23943460e+00 
        </DataArray>
        <DataArray type="Float64" Name="p">
          -4.47027708e+03 -5.21388131e+03 -5.84861019e+03 -6.42195194e+03 -6.98139479e+03 -7.57442694e+03 -4.38446633e+03 -5.11827432e+03 -5.73172371e+03 -6.26459202e+03 -6.75665677e+03 -7.24769547e+03 -4.29191145e+03 -5.00963368e+03 -5.60423879e+03 -6.10629863e+03 -6.54638507e+03 -6.95506994e+03 -4.19784757e+03 -4.89784533e+03 -5.47746709e+03 -5.95828184e+03 -6.36185855e+03 -6.70976620e+03 -4.10750979e+03 -4.79279518e+03 -5.36272027e+03 -5.83175170e+03 -6.21435610e+03 -6.52500011e+03 -4.02613327e+03 -4.70436917e+03 -5.27130999e+03 -5.73791829e+03 -6.11515661e+03 -6.41398751e+03 
        </DataArray>
      </PointData>
    </Piece>
    <Piece NumberOfPoints="36" NumberOfCells="25">
      <Points>
        <DataArray type="Float64" NumberOfComponents="3" format="ascii">
          0.00000000e+00 5.00000000e+00 0.00000000e+00 
5.00000000e-01 5.00000000e+00 0.00000000e+00 
1.00000000e+00 5.00000000e+00 0.00000000e+00 
1.50000000e+00 5.00000000e+00 0.00000000e+00 
2.00000000e+00 5.00000000e+00 0.00000000e+00 
2.50000000e+00 5.00000000e+00 0.00000000e+00 
0.00000000e+00 5.19999981e+00 0.00000000e+00 
5.00000000e-01 5.19999981e+00 0.00000000e+00 
1.00000000e+00 5.19999981e+00 0.00000000e+00 
1.50000000e+00 5.19999981e+00 0.00000000e+00 
2.00000000e+00 5.19999981e+00 0.00000000e+00 
2.50000000e+00 5.19999981e+00 0.00000000e+00 
0.00000000e+00 5.40000010e+00 0.00000000e+00 
5.00000000e-01 5.40000010e+00 0.00000000e+00 
1.00000000e+00 5.40000010e+00 0.00000000e+00 
1.50000000e+00 5.40000010e+00 0.00000000e+00 
2.00000000e+00 5.40000010e+00 0.00000000e+00 
2.50000000e+00 5.40000010e+00 0.00000000e+00 
0.00000000e+00 5.59999990e+00 0.00000000e+00 
5.00000000e-01 5.59999990e+00 0.00000000e+00 
1.00000000e+00 5.59999990e+00 0.00000000e+00 
1.50000000e+00 5.59999990e+00 0.00000000e+00 
2.00000000e+00 5.59999990e+00 0.00000000e+00 
2.50000000e+00 5.59999990e+00 0.00000000e+00 
0.00000000e+00 5.80000019e+00 0.00000000e+00 
5.00000000e-01 5.80000019e+00 0.00000000e+00 
1.00000000e+00 5.80000019e+00 0.00000000e+00 
1.50000000e+00 5.80000019e+00 0.00000000e+00 
2.00000000e+00 5.80000019e+00 0.00000000e+00 
2.50000000e+00 5.80000019e+00 0.00000000e+00 
0.00000000e+00 6.00000000e+00 0.00000000e+00 
5.00000000e-01 6.00000000e+00 0.00000000e+00 
1.00000000e+00 6.00000000e+00 0.00000000e+00 
1.50000000e+00 6.00000000e+00 0.00000000e+00 
2.00000000e+00 6.00000000e+00 0.00000000e+00 
2.50000000e+00 6.00000000e+00 0.00000000e+00 

        </DataArray>
      </Points>
      <Cells>
        <DataArray type="Int32" Name="connectivity" format="ascii">
0 1 7 6
6 7 13 12
12 13 19 18
18 19 25 24
24 25 31 30
1 2 8 7
7 8 14 13
13 14 20 19
19 20 26 25
25 26 32 31
2 3 9 8
8 9 15 14
14 15 21 20
20 21 27 26
26 27 33 32
3 4 10 9
9 10 16 15
15 16 22 21
21 22 28 27
27 28 34 33
4 5 11 10
10 11 17 16
16 17 23 22
22 23 29 28
28 29 35 34

        </DataArray>
        <DataArray type="Int32" Name="offsets" format="ascii">
4 8 12 16 20 24 28 32 36 40 44 48 52 56 60 64 68 72 76 80 84 88 92 96 100 
        </DataArray>
        <DataArray type="UInt8" Name="types" format="ascii">
9 9 9 9 9 9 9 9 9 9 9 9 9 9 9 9 9 9 9 9 9 9 9 9 9 
        </DataArray>
      </Cells>
      <PointData>
        <DataArray type="Float64" Name="u">
          2.20000000e+02 2.19889816e+02 2.19498321e+02 2.18053661e+02 2.16449598e+02 2.13454107e+02 1.93600000e+02 1.93419796e+02 1.92910617e+02 1.91298789e+02 1.89377130e+02 1.86499562e+02 1.58400000e+02 1.58175188e+02 1.57602348e+02 1.55741187e+02 1.54003086e+02 1.50822621e+02 1.14400000e+02 1.14216531e+02 1.13519994e+02 1.11712492e+02 1.10428608e+02 1.07563963e+02 6.16000000e+01 6.14818289e+01 6.08013826e+01 5.98129753e+01 5.86574611e+01 5.91484129e+01 0.00000000e+00 0.00000000e+00 0.00000000e+00 0.00000000e+00 0.00000000e+00 0.00000000e+00 
        </DataArray>
        <DataArray type="Float64" Name="v">
          0.00000000e+00 -8.52934518e-01 -1.76284658e+00 -2.65197992e+00 -3.45756253e+00 -4.23943460e+00 0.00000000e+00 -6.95402161e-01 -1.43480748e+00 -2.06152830e+00 -2.50453697e+00 -2.60425485e+00 0.00000000e+00 -4.56839041e-01 -1.05936092e+00 -1.49765242e+00 -1.44618167e+00 -8.97196119e-01 0.00000000e+00 -2.67629638e-01 -6.72778864e-01 -8.09388636e-01 -6.15169110e-01 6.53412357e-01 0.00000000e+00 -1.50854784e-01 -2.63057618e-01 -1.27956222e-01 -2.92016523e-01 1.96847019e+00 0.00000000e+00 0.00000000e+00 0.00000000e+00 0.00000000e+00 0.00000000e+00 0.00000000e+00 
        </DataArray>
        <DataArray type="Float64" Name="p">
          -4.02911203e+03 -4.70678087e+03 -5.26924236e+03 -5.73382865e+03 -6.11787187e+03 -6.43870417e+03 -3.96675757e+03 -4.63273750e+03 -5.20166543e+03 -5.67646991e+03 -6.06007947e+03 -6.35542266e+03 -3.93911061e+03 -4.58566181e+03 -5.15441629e+03 -5.64533800e+03 -6.05839090e+03 -6.39353895e+03 -3.92937694e+03 -4.56029447e+03 -5.12733077e+03 -5.63443217e+03 -6.08554500e+03 -6.48461560e+03 -3.92076238e+03 -4.55137614e+03 -5.12024470e+03 -5.63775166e+03 -6.11428061e+03 -6.56021516e+03 -3.89647271e+03 -4.55364750e+03 -5.13299393e+03 -5.64929571e+03 -6.11733657e+03 -6.55190020e+03 
        </DataArray>
      </PointData>
    </Piece>
    <Piece NumberOfPoints="36" NumberOfCells="25">
      <Points>
        <DataArray type="Float64" NumberOfComponents="3" format="ascii">
          2.50000000e+00 0.00000000e+00 0.00000000e+00 
3.00000000e+00 0.00000000e+00 0.00000000e+00 
3.50000000e+00 0.00000000e+00 0.00000000e+00 
4.00000000e+00 0.00000000e+00 0.00000000e+00 
4.50000000e+00 0.00000000e+00 0.00000000e+00 
5.00000000e+00 0.00000000e+00 0.00000000e+00 
2.50000000e+00 2.00000003e-01 0.00000000e+00 
3.00000000e+00 2.00000003e-01 0.00000000e+00 
3.50000000e+00 2.00000003e-01 0.00000000e+00 
4.00000000e+00 2.00000003e-01 0.00000000e+00 
4.50000000e+00 2.00000003e-01 0.00000000e+00 
5.00000000e+00 2.00000003e-01 0.00000000e+00 
2.50000000e+00 4.00000006e-01 0.00000000e+00 
3.00000000e+00 4.00000006e-01 0.00000000e+00 
3.50000000e+00 4.00000006e-01 0.00000000e+00 
4.00000000e+00 4.00000006e-01 0.00000000e+00 
4.50000000e+00 4.00000006e-01 0.00000000e+00 
5.00000000e+00 4.00000006e-01 0.00000000e+00 
2.50000000e+00 6.00000024e-01 0.00000000e+00 
3.00000000e+00 6.00000024e-01 0.00000000e+00 
3.50000000e+00 6.00000024e-01 0.00000000e+00 
4.00000000e+00 6.00000024e-01 0.00000000e+00 
4.50000000e+00 6.00000024e-01 0.00000000e+00 
5.00000000e+00 6.00000024e-01 0.00000000e+00 
2.50000000e+00 8.00000012e-01 0.00000000e+00 
3.00000000e+00 8.00000012e-01 0.00000000e+00 
3.50000000e+00 8.00000012e-01 0.00000000e+00 
4.00000000e+00 8.00000012e-01 0.00000000e+00 
4.50000000e+00 8.00000012e-01 0.00000000e+00 
5.00000000e+00 8.00000012e-01 0.00000000e+00 
2.50000000e+00 1.00000000e+00 0.00000000e+00 
3.00000000e+00 1.00000000e+00 0.00000000e+00 
3.50000000e+00 1.00000000e+00 0.00000000e+00 
4.00000000e+00 1.00000000e+00 0.00000000e+00 
4.50000000e+00 1.00000000e+00 0.00000000e+00 
5.00000000e+00 1.00000000e+00 0.00000000e+00 

        </DataArray>
      </Points>
      <Cells>
        <DataArray type="Int32" Name="connectivity" format="ascii">
0 1 7 6
6 7 13 12
12 13 19 18
18 19 25 24
24 25 31 30
1 2 8 7
7 8 14 13
13 14 20 19
19 20 26 25
25 26 32 31
2 3 9 8
8 9 15 14
14 15 21 20
20 21 27 26
26 27 33 32
3 4 10 9
9 10 16 15
15 16 22 21
21 22 28 27
27 28 34 33
4 5 11 10
10 11 17 16
16 17 23 22
22 23 29 28
28 29 35 34

        </DataArray>
        <DataArray type="Int32" Name="offsets" format="ascii">
4 8 12 16 20 24 28 32 36 40 44 48 52 56 60 64 68 72 76 80 84 88 92 96 100 
        </DataArray>
        <DataArray type="UInt8" Name="types" format="ascii">
9 9 9 9 9 9 9 9 9 9 9 9 9 9 9 9 9 9 9 9 9 9 9 9 9 
        </DataArray>
      </Cells>
      <PointData>
        <DataArray type="Float64" Name="u">
          0.00000000e+00 0.00000000e+00 0.00000000e+00 0.00000000e+00 0.00000000e+00 0.00000000e+00 0.00000000e+00 -3.70667387e-01 -1.52979642e+00 -2.91979250e+00 -4.33668962e+00 -5.68793220e+00 0.00000000e+00 -8.77864371e-01 -3.00762018e+00 -5.54173234e+00 -8.05049474e+00 -1.04312323e+01 0.00000000e+00 -1.38111385e+00 -4.35797080e+00 -7.78689343e+00 -1.10579211e+01 -1.41089809e+01 0.00000000e+00 -1.82843476e+00 -5.50526171e+00 -9.56037267e+00 -1.32506592e+01 -1.65907139e+01 0.00000000e+00 -2.20085105e+00 -6.38673550e+00 -1.07677225e+01 -1.45162009e+01 -1.77513716e+01 
        </DataArray>
        <DataArray type="Float64" Name="v">
          0.00000000e+00 0.00000000e+00 0.00000000e+00 0.00000000e+00 0.00000000e+00 0.00000000e+00 0.00000000e+00 1.53760137e-01 2.99934786e-01 2.97002244e-01 2.72639004e-01 2.84657506e-01 0.00000000e+00 6.40617266e-01 1.08690927e+00 1.10382004e+00 1.03509073e+00 1.03441494e+00 0.00000000e+00 1.46167688e+00 2.25986881e+00 2.29968988e+00 2.16260317e+00 2.10074340e+00 0.00000000e+00 2.58591016e+00 3.73078751e+00 3.76308338e+00 3.51780738e+00 3.33285763e+00 0.00000000e+00 3.96355254e+00 5.42060165e+00 5.36417822e+00 4.94298334e+00 4.57078355e+00 
        </DataArray>
        <DataArray type="Float64" Name="p">
          -7.62277556e+03 -7.65599922e+03 -7.66950560e+03 -7.66217172e+03 -7.63287458e+03 -7.58049120e+03 -7.62495777e+03 -7.64691434e+03 -7.65514891e+03 -7.64647752e+03 -7.61771624e+03 -7.56568112e+03 -7.61855738e+03 -7.63865395e+03 -7.64492198e+03 -7.63490171e+03 -7.60613340e+03 -7.55615730e+03 -7.60944782e+03 -7.63320312e+03 -7.63968300e+03 -7.62858494e+03 -7.59960642e+03 -7.55244491e+03 -7.60350255e+03 -7.63254693e+03 -7.64029017e+03 -7.62866787e+03 -7.59961564e+03 -7.55506907e+03 -7.60659500e+03 -7.63867046e+03 -7.64760167e+03 -7.63629115e+03 -7.60764140e+03 -7.56455494e+03 
        </DataArray>
      </PointData>
    </Piece>
    <Piece NumberOfPoints="36" NumberOfCells="25">
      <Points>
        <DataArray type="Float64" NumberOfComponents="3" format="ascii">
          2.50000000e+00 1.00000000e+00 0.00000000e+00 
3.00000000e+00 1.00000000e+00 0.00000000e+00 
3.50000000e+00 1.00000000e+00 0.00000000e+00 
4.00000000e+00 1.00000000e+00 0.00000000e+00 
4.50000000e+00 1.00000000e+00 0.00000000e+00 
5.00000000e+00 1.00000000e+00 0.00000000e+00 
2.50000000e+00 1.20000005e+00 0.00000000e+00 
3.00000000e+00 1.20000005e+00 0.00000000e+00 
3.50000000e+00 1.20000005e+00 0.00000000e+00 
4.00000000e+00 1.20000005e+00 0.00000000e+00 
4.50000000e+00 1.20000005e+00 0.00000000e+00 
5.00000000e+00 1.20000005e+00 0.00000000e+00 
2.50000000e+00 1.39999998e+00 0.00000000e+00 
3.00000000e+00 1.39999998e+00 0.00000000e+00 
3.50000000e+00 1.39999998e+00 0.00000000e+00 
4.00000000e+00 1.39999998e+00 0.00000000e+00 
4.50000000e+00 1.39999998e+00 0.00000000e+00 
5.00000000e+00 1.39999998e+00 0.00000000e+00 
2.50000000e+00 1.60000002e+00 0.00000000e+00 
3.00000000e+00 1.60000002e+00 0.00000000e+00 
3.50000000e+00 1.60000002e+00 0.00000000e+00 
4.00000000e+00 1.60000002e+00 0.00000000e+00 
4.50000000e+00 1.60000002e+00 0.00000000e+00 
5.00000000e+00 1.60000002e+00 0.00000000e+00 
2.50000000e+00 1.79999995e+00 0.00000000e+00 
3.00000000e+00 1.79999995e+00 0.00000000e+00 
3.50000000e+00 1.79999995e+00 0.00000000e+00 
4.00000000e+00 1.79999995e+00 0.00000000e+00 
4.50000000e+00 1.79999995e+00 0.00000000e+00 
5.00000000e+00 1.79999995e+00 0.00000000e+00 
2.50000000e+00 2.00000000e+00 0.00000000e+00 
3.00000000e+00 2.00000000e+00 0.00000000e+00 
3.50000000e+00 2.00000000e+00 0.00000000e+00 
4.00000000e+00 2.00000000e+00 0.00000000e+00 
4.50000000e+00 2.00000000e+00 0.00000000e+00 
5.00000000e+00 2.00000000e+00 0.00000000e+00 

        </DataArray>
      </Points>
      <Cells>
        <DataArray type="Int32" Name="connectivity" format="ascii">
0 1 7 6
6 7 13 12
12 13 19 18
18 19 25 24
24 25 31 30
1 2 8 7
7 8 14 13
13 14 20 19
19 20 26 25
25 26 32 31
2 3 9 8
8 9 15 14
14 15 21 20
20 21 27 26
26 27 33 32
3 4 10 9
9 10 16 15
15 16 22 21
21 22 28 27
27 28 34 33
4 5 11 10
10 11 17 16
16 17 23 22
22 23 29 28
28 29 35 34

        </DataArray>
        <DataArray type="Int32" Name="offsets" format="ascii">
4 8 12 16 20 24 28 32 36 40 44 48 52 56 60 64 68 72 76 80 84 88 92 96 100 
        </DataArray>
        <DataArray type="UInt8" Name="types" format="ascii">
9 9 9 9 9 9 9 9 9 9 9 9 9 9 9 9 9 9 9 9 9 9 9 9 9 
        </DataArray>
      </Cells>
      <PointData>
        <DataArray type="Float64" Name="u">
          0.00000000e+00 -2.20085105e+00 -6.38673550e+00 -1.07677225e+01 -1.45162009e+01 -1.77513716e+01 0.00000000e+00 -2.48447636e+00 -6.95562290e+00 -1.13256268e+01 -1.47479717e+01 -1.74871929e+01 0.00000000e+00 -2.67495641e+00 -7.16588721e+00 -1.11467635e+01 -1.38391186e+01 -1.57068017e+01 0.00000000e+00 -2.77870228e+00 -6.96676400e+00 -1.01280385e+01 -1.16629200e+01 -1.23119436e+01 0.00000000e+00 -2.79747338e+00 -6.26094697e+00 -8.10179979e+00 -8.03137304e+00 -7.15433473e+00 0.00000000e+00 -2.69974771e+00 -4.82861188e+00 -4.75431299e+00 -2.62694872e+00 1.97915234e-03 
        </DataArray>
        <DataArray type="Float64" Name="v">
          0.00000000e+00 3.96355254e+00 5.42060165e+00 5.36417822e+00 4.94298334e+00 4.57078355e+00 0.00000000e+00 5.53357964e+00 7.22448035e+00 6.96348439e+00 6.28158704e+00 5.65739418e+00 0.00000000e+00 7.22460843e+00 9.01913438e+00 8.40671721e+00 7.37497460e+00 6.44375804e+00 0.00000000e+00 8.95908885e+00 1.06460748e+01 9.51529592e+00 8.06220561e+00 6.79515428e+00 0.00000000e+00 1.06508301e+01 1.19330251e+01 1.01150855e+01 8.20536260e+00 6.59432461e+00 0.00000000e+00 1.21851326e+01 1.26110174e+01 9.98333927e+00 7.68012752e+00 5.73567587e+00 
        </DataArray>
        <DataArray type="Float64" Name="p">
          -7.60516603e+03 -7.63889643e+03 -7.64826833e+03 -7.63671901e+03 -7.60768576e+03 -7.56460585e+03 -7.61783150e+03 -7.65396416e+03 -7.66360589e+03 -7.65144099e+03 -7.62215374e+03 -7.58042842e+03 -7.64146970e+03 -7.68001122e+03 -7.68881048e+03 -7.67432321e+03 -7.64300516e+03 -7.60131207e+03 -7.67997444e+03 -7.71799761e+03 -7.72229062e+03 -7.70206549e+03 -7.66653422e+03 -7.62490885e+03 -7.73723951e+03 -7.76888329e+03 -7.76245486e+03 -7.73136766e+03 -7.68903516e+03 -7.64887080e+03 -7.81715874e+03 -7.83362825e+03 -7.80771172e+03 -7.75892956e+03 -7.70680218e+03 -7.67084998e+03 
        </DataArray>
      </PointData>
    </Piece>
    <Piece NumberOfPoints="36" NumberOfCells="25">
      <Points>
        <DataArray type="Float64" NumberOfComponents="3" format="ascii">
          2.50000000e+00 2.00000000e+00 0.00000000e+00 
3.00000000e+00 2.00000000e+00 0.00000000e+00 
3.50000000e+00 2.00000000e+00 0.00000000e+00 
4.00000000e+00 2.00000000e+00 0.00000000e+00 
4.50000000e+00 2.00000000e+00 0.00000000e+00 
5.00000000e+00 2.00000000e+00 0.00000000e+00 
2.50000000e+00 2.20000005e+00 0.00000000e+00 
3.00000000e+00 2.20000005e+00 0.00000000e+00 
3.50000000e+00 2.20000005e+00 0.00000000e+00 
4.00000000e+00 2.20000005e+00 0.00000000e+00 
4.50000000e+00 2.20000005e+00 0.00000000e+00 
5.00000000e+00 2.20000005e+00 0.00000000e+00 
2.50000000e+00 2.40000010e+00 0.00000000e+00 
3.00000000e+00 2.40000010e+00 0.00000000e+00 
3.50000000e+00 2.40000010e+00 0.00000000e+00 
4.00000000e+00 2.40000010e+00 0.00000000e+00 
4.50000000e+00 2.40000010e+00 0.00000000e+00 
5.00000000e+00 2.40000010e+00 0.00000000e+00 
2.50000000e+00 2.59999990e+00 0.00000000e+00 
3.00000000e+00 2.59999990e+00 0.00000000e+00 
3.50000000e+00 2.59999990e+00 0.00000000e+00 
4.00000000e+00 2.59999990e+00 0.00000000e+00 
4.50000000e+00 2.59999990e+00 0.00000000e+00 
5.00000000e+00 2.59999990e+00 0.00000000e+00 
2.50000000e+00 2.79999995e+00 0.00000000e+00 
3.00000000e+00 2.79999995e+00 0.00000000e+00 
3.50000000e+00 2.79999995e+00 0.00000000e+00 
4.00000000e+00 2.79999995e+00 0.00000000e+00 
4.50000000e+00 2.79999995e+00 0.00000000e+00 
5.00000000e+00 2.79999995e+00 0.00000000e+00 
2.50000000e+00 3.00000000e+00 0.00000000e+00 
3.00000000e+00 3.00000000e+00 0.00000000e+00 
3.50000000e+00 3.00000000e+00 0.00000000e+00 
4.00000000e+00 3.00000000e+00 0.00000000e+00 
4.50000000e+00 3.00000000e+00 0.00000000e+00 
5.00000000e+00 3.00000000e+00 0.00000000e+00 

        </DataArray>
      </Points>
      <Cells>
        <DataArray type="Int32" Name="connectivity" format="ascii">
0 1 7 6
6 7 13 12
12 13 19 18
18 19 25 24
24 25 31 30
1 2 8 7
7 8 14 13
13 14 20 19
19 20 26 25
25 26 32 31
2 3 9 8
8 9 15 14
14 15 21 20
20 21 27 26
26 27 33 32
3 4 10 9
9 10 16 15
15 16 22 21
21 22 28 27
27 28 34 33
4 5 11 10
10 11 17 16
16 17 23 22
22 23 29 28
28 29 35 34

        </DataArray>
        <DataArray type="Int32" Name="offsets" format="ascii">
4 8 12 16 20 24 28 32 36 40 44 48 52 56 60 64 68 72 76 80 84 88 92 96 100 
        </DataArray>
        <DataArray type="UInt8" Name="types" format="ascii">
9 9 9 9 9 9 9 9 9 9 9 9 9 9 9 9 9 9 9 9 9 9 9 9 9 
        </DataArray>
      </Cells>
      <PointData>
        <DataArray type="Float64" Name="u">
          0.00000000e+00 -2.69974771e+00 -4.82861188e+00 -4.75431299e+00 -2.62694872e+00 1.97915234e-03 0.00000000e+00 -2.44279169e+00 -2.15960864e+00 5.44917671e-01 5.05401908e+00 9.62006929e+00 0.00000000e+00 -1.35455398e+00 2.60646164e+00 8.78458551e+00 1.58148267e+01 2.23472457e+01 0.00000000e+00 1.66942899e+00 1.14268526e+01 2.17773704e+01 3.06376200e+01 3.93513839e+01 0.00000000e+00 1.07029164e+01 2.70920640e+01 4.13623480e+01 5.08837004e+01 6.15503725e+01 0.00000000e+00 3.69870032e+01 5.13881668e+01 6.82182941e+01 7.79577971e+01 8.98756030e+01 
        </DataArray>
        <DataArray type="Float64" Name="v">
          0.00000000e+00 1.21851326e+01 1.26110174e+01 9.98333927e+00 7.68012752e+00 5.73567587e+00 0.00000000e+00 1.33755531e+01 1.22737927e+01 8.92216540e+00 6.41515362e+00 4.10549406e+00 0.00000000e+00 1.38530775e+01 1.05806149e+01 6.67499460e+00 4.38001176e+00 1.58525750e+00 0.00000000e+00 1.28969803e+01 6.49789055e+00 3.29054419e+00 1.90942878e+00 -2.07531282e+00 0.00000000e+00 8.64889915e+00 6.42690614e-01 -7.61943500e-01 -1.49606520e+00 -6.42261695e+00 0.00000000e+00 -2.35832723e+00 -2.87562399e+00 -5.03569801e+00 -7.49261272e+00 -9.95677289e+00 
        </DataArray>
        <DataArray type="Float64" Name="p">
          -7.77545320e+03 -7.83749141e+03 -7.81676439e+03 -7.75626500e+03 -7.69898611e+03 -7.68792060e+03 -7.95853071e+03 -7.91054099e+03 -7.84538282e+03 -7.77681790e+03 -7.71860790e+03 -7.68451452e+03 -8.11745909e+03 -8.00562325e+03 -7.88497996e+03 -7.77915282e+03 -7.71176540e+03 -7.70644129e+03 -8.43429197e+03 -8.10815610e+03 -7.89556541e+03 -7.77004783e+03 -7.70513131e+03 -7.67434376e+03 -9.09108300e+03 -8.20355745e+03 -7.83714874e+03 -7.75628099e+03 -7.72537830e+03 -7.50886477e+03 -1.02698858e+04 -8.27724521e+03 -7.66973957e+03 -7.74463036e+03 -7.79917907e+03 -7.13064719e+03 
        </DataArray>
      </PointData>
    </Piece>
    <Piece NumberOfPoints="36" NumberOfCells="25">
      <Points>
        <DataArray type="Float64" NumberOfComponents="3" format="ascii">
          2.50000000e+00 3.00000000e+00 0.00000000e+00 
3.00000000e+00 3.00000000e+00 0.00000000e+00 
3.50000000e+00 3.00000000e+00 0.00000000e+00 
4.00000000e+00 3.00000000e+00 0.00000000e+00 
4.50000000e+00 3.00000000e+00 0.00000000e+00 
5.00000000e+00 3.00000000e+00 0.00000000e+00 
2.50000000e+00 3.20000005e+00 0.00000000e+00 
3.00000000e+00 3.20000005e+00 0.00000000e+00 
3.50000000e+00 3.20000005e+00 0.00000000e+00 
4.00000000e+00 3.20000005e+00 0.00000000e+00 
4.50000000e+00 3.20000005e+00 0.00000000e+00 
5.00000000e+00 3.20000005e+00 0.00000000e+00 
2.50000000e+00 3.40000010e+00 0.00000000e+00 
3.00000000e+00 3.40000010e+00 0.00000000e+00 
3.50000000e+00 3.40000010e+00 0.00000000e+00 
4.00000000e+00 3.40000010e+00 0.00000000e+00 
4.50000000e+00 3.40000010e+00 0.00000000e+00 
5.00000000e+00 3.40000010e+00 0.00000000e+00 
2.50000000e+00 3.59999990e+00 0.00000000e+00 
3.00000000e+00 3.59999990e+00 0.00000000e+00 
3.50000000e+00 3.59999990e+00 0.00000000e+00 
4.00000000e+00 3.59999990e+00 0.00000000e+00 
4.50000000e+00 3.59999990e+00 0.00000000e+00 
5.00000000e+00 3.59999990e+00 0.00000000e+00 
2.50000000e+00 3.79999995e+00 0.00000000e+00 
3.00000000e+00 3.79999995e+00 0.00000000e+00 
3.50000000e+00 3.79999995e+00 0.00000000e+00 
4.00000000e+00 3.79999995e+00 0.00000000e+00 
4.50000000e+00 3.79999995e+00 0.00000000e+00 
5.00000000e+00 3.79999995e+00 0.00000000e+00 
2.50000000e+00 4.00000000e+00 0.00000000e+00 
3.00000000e+00 4.00000000e+00 0.00000000e+00 
3.50000000e+00 4.00000000e+00 0.00000000e+00 
4.00000000e+00 4.00000000e+00 0.00000000e+00 
4.50000000e+00 4.00000000e+00 0.00000000e+00 
5.00000000e+00 4.00000000e+00 0.00000000e+00 

        </DataArray>
      </Points>
      <Cells>
        <DataArray type="Int32" Name="connectivity" format="ascii">
0 1 7 6
6 7 13 12
12 13 19 18
18 19 25 24
24 25 31 30
1 2 8 7
7 8 14 13
13 14 20 19
19 20 26 25
25 26 32 31
2 3 9 8
8 9 15 14
14 15 21 20
20 21 27 26
26 27 33 32
3 4 10 9
9 10 16 15
15 16 22 21
21 22 28 27
27 28 34 33
4 5 11 10
10 11 17 16
16 17 23 22
22 23 29 28
28 29 35 34

        </DataArray>
        <DataArray type="Int32" Name="offsets" format="ascii">
4 8 12 16 20 24 28 32 36 40 44 48 52 56 60 64 68 72 76 80 84 88 92 96 100 
        </DataArray>
        <DataArray type="UInt8" Name="types" format="ascii">
9 9 9 9 9 9 9 9 9 9 9 9 9 9 9 9 9 9 9 9 9 9 9 9 9 
        </DataArray>
      </Cells>
      <PointData>
        <DataArray type="Float64" Name="u">