# Triangular format N=7 Nface=442
# Point placement in standard element (z1 followed by z2):
#  -1.000000000000  -0.830223896279  -0.468848793471   0.000000000000   0.468848793471   0.830223896279   1.000000000000  -1.000000000000  -0.787766142924  -0.380403569720   0.113819840750   0.575532285848   0.830223896279  -1.000000000000  -0.733416271030  -0.333333333333   0.113819840750   0.468848793471  -1.000000000000  -0.733416271030  -0.380403569720   0.000000000000  -1.000000000000  -0.787766142924  -0.468848793471  -1.000000000000  -0.830223896279  -1.000000000000 
#  -1.000000000000  -1.000000000000  -1.000000000000  -1.000000000000  -1.000000000000  -1.000000000000  -1.000000000000  -0.830223896279  -0.787766142924  -0.733416271030  -0.733416271030  -0.787766142924  -0.830223896279  -0.468848793471  -0.380403569720  -0.333333333333  -0.380403569720  -0.468848793471   0.000000000000   0.113819840750   0.113819840750   0.000000000000   0.468848793471   0.575532285848   0.468848793471   0.830223896279   0.830223896279   1.000000000000 
VARIABLES = x, y, z, j2d
ZONE T="Face 1", N=28, E=36, F=FEPOINT, ET=TRIANGLE
-5 0.5 0 0.279645
-5 0.497511 0.0443893 0.279645
-5 0.48086 0.137273 0.279645
-5 0.433021 0.250004 0.279645
-5 0.359266 0.347745 0.279645
-5 0.287447 0.409115 0.279645
-5 0.24999 0.433018 0.279645
-5 0.474286 0.0295549 0.279645
-5 0.457502 0.0902003 0.279645
-5 0.412427 0.196194 0.279645
-5 0.349944 0.305665 0.279645
-5 0.284169 0.386818 0.279645
-5 0.245499 0.425814 0.279645
-5 0.419551 0.0924636 0.279645
-5 0.383844 0.170679 0.279645
-5 0.330543 0.269726 0.279645
-5 0.277142 0.35515 0.279645
-5 0.235938 0.410482 0.279645
-5 0.348539 0.174081 0.279645
-5 0.303127 0.253874 0.279645
-5 0.259344 0.331166 0.279645
-5 0.223534 0.39059 0.279645
-5 0.277527 0.255699 0.279645
-5 0.236321 0.320831 0.279645
-5 0.21113 0.370698 0.279645
-5 0.222793 0.318608 0.279645
-5 0.20157 0.355366 0.279645
-5 0.197078 0.348163 0.279645
1 2 8
2 3 9
3 4 10
4 5 11
5 6 12
6 7 13
2 9 8
3 10 9
4 11 10
5 12 11
6 13 12
8 9 14
9 10 15
10 11 16
11 12 17
12 13 18
9 15 14
10 16 15
11 17 16
12 18 17
14 15 19
15 16 20
16 17 21
17 18 22
15 20 19
16 21 20
17 22 21
19 20 23
20 21 24
21 22 25
20 24 23
21 25 24
23 24 26
24 25 27
24 27 26
26 27 28
ZONE T="Face 2", N=28, E=36, F=FEPOINT, ET=TRIANGLE
-5 0.5 0 1
-5 0.474286 0.0295549 1
-5 0.419551 0.0924636 1
-5 0.348539 0.174081 1
-5 0.277527 0.255699 1
-5 0.222793 0.318608 1
-5 0.197078 0.348163 1
-5 0.491511 0 1
-5 0.457243 0.036946 1
-5 0.392826 0.10786 1
-5 0.317971 0.193895 1
-5 0.250757 0.274271 1
-5 0.214304 0.318608 1
-5 0.473442 0 1
-5 0.428643 0.0464073 1
-5 0.365693 0.116054 1
-5 0.30032 0.193895 1
-5 0.250969 0.255699 1
-5 0.45 0 1
-5 0.403932 0.0464073 1
-5 0.350464 0.10786 1
-5 0.298539 0.174081 1
-5 0.426558 0 1
-5 0.389078 0.036946 1
-5 0.346109 0.0924636 1
-5 0.408489 0 1
-5 0.382774 0.0295549 1
-5 0.4 0 1
1 2 8
2 3 9
3 4 10
4 5 11
5 6 12
6 7 13
2 9 8
3 10 9
4 11 10
5 12 11
6 13 12
8 9 14
9 10 15
10 11 16
11 12 17
12 13 18
9 15 14
10 16 15
11 17 16
12 18 17
14 15 19
15 16 20
16 17 21
17 18 22
15 20 19
16 21 20
17 22 21
19 20 23
20 21 24
21 22 25
20 24 23
21 25 24
23 24 26
24 25 27
24 27 26
26 27 28
ZONE T="Face 3", N=28, E=36, F=FEPOINT, ET=TRIANGLE
-5 0.24999 0.433018 0.269638
-5 0.210562 0.4535 0.269638
-5 0.12151 0.48501 0.269638
-5 0 0.5 0.269638
-5 -0.12151 0.48501 0.269638
-5 -0.210563 0.453501 0.269638
-5 -0.24999 0.433017 0.269638
-5 0.212039 0.425814 0.269638
-5 0.150678 0.440121 0.269638
-5 0.0360287 0.455563 0.269638
-5 -0.0885667 0.455563 0.269638
-5 -0.192505 0.440121 0.269638
-5 -0.245498 0.425814 0.269638
-5 0.13126 0.410482 0.269638
-5 0.0457916 0.41807 0.269638
-5 -0.0656926 0.421397 0.269638
-5 -0.167901 0.41807 0.269638
-5 -0.235938 0.410482 0.269638
-5 0.0264561 0.39059 0.269638
-5 -0.0660349 0.391261 0.269638
-5 -0.153475 0.391261 0.269638
-5 -0.223534 0.39059 0.269638
-5 -0.0783475 0.370698 0.269638
-5 -0.155251 0.367469 0.269638
-5 -0.21113 0.370698 0.269638
-5 -0.159127 0.355366 0.269638
-5 -0.201569 0.355366 0.269638
-5 -0.197078 0.348163 0.269638
1 2 8
2 3 9
3 4 10
4 5 11
5 6 12
6 7 13
2 9 8
3 10 9
4 11 10
5 12 11
6 13 12
8 9 14
9 10 15
10 11 16
11 12 17
12 13 18
9 15 14
10 16 15
11 17 16
12 18 17
14 15 19
15 16 20
16 17 21
17 18 22
15 20 19
16 21 20
17 22 21
19 20 23
20 21 24
21 22 25
20 24 23
21 25 24
23 24 26
24 25 27
24 27 26
26 27 28
ZONE T="Face 4", N=28, E=36, F=FEPOINT, ET=TRIANGLE
-5 0.24999 0.433018 1
-5 0.212039 0.425814 1
-5 0.13126 0.410482 1
-5 0.0264561 0.39059 1
-5 -0.0783475 0.370698 1
-5 -0.159127 0.355366 1
-5 -0.197078 0.348163 1
-5 0.245499 0.425814 1
-5 0.196934 0.415009 1
-5 0.104436 0.395419 1
-5 -0.00603924 0.374451 1
-5 -0.10781 0.357167 1
-5 -0.163619 0.348163 1
-5 0.235938 0.410482 1
-5 0.174008 0.395419 1
-5 0.0833301 0.376448 1
-5 -0.0153785 0.359473 1
-5 -0.0923997 0.348163 1
-5 0.223534 0.39059 1
-5 0.160932 0.374451 1
-5 0.082022 0.359473 1
-5 1.05e-07 0.348163 1
-5 0.21113 0.370698 1
-5 0.160866 0.357167 1
-5 0.0923999 0.348163 1
-5 0.20157 0.355366 1
-5 0.163619 0.348163 1
-5 0.197078 0.348163 1
1 2 8
2 3 9
3 4 10
4 5 11
5 6 12
6 7 13
2 9 8
3 10 9
4 11 10
5 12 11
6 13 12
8 9 14
9 10 15
10 11 16
11 12 17
12 13 18
9 15 14
10 16 15
11 17 16
12 18 17
14 15 19
15 16 20
16 17 21
17 18 22
15 20 19
16 21 20
17 22 21
19 20 23
20 21 24
21 22 25
20 24 23
21 25 24
23 24 26
24 25 27
24 27 26
26 27 28
ZONE T="Face 5", N=28, E=36, F=FEPOINT, ET=TRIANGLE
-5 -0.24999 0.433017 0.271899
-5 -0.287447 0.409114 0.271899
-5 -0.359266 0.347745 0.271899
-5 -0.433021 0.250004 0.271899
-5 -0.48086 0.137272 0.271899
-5 -0.497511 0.0443895 0.271899
-5 -0.5 0 0.271899
-5 -0.262724 0.396259 0.271899
-5 -0.305723 0.349891 0.271899
-5 -0.377038 0.259291 0.271899
-5 -0.439528 0.149812 0.271899
-5 -0.479055 0.0532608 0.271899
-5 -0.491511 0 0.271899
-5 -0.289829 0.318019 0.271899
-5 -0.340047 0.247322 0.271899
-5 -0.398257 0.153711 0.271899
-5 -0.446754 0.0628386 0.271899
-5 -0.473442 0 0.271899
-5 -0.324995 0.216509 0.271899
-5 -0.372399 0.137304 0.271899
-5 -0.416189 0.060005 0.271899
-5 -0.45 0 0.271899
-5 -0.360161 0.114999 0.271899
-5 -0.396209 0.0465802 0.271899
-5 -0.426558 0 0.271899
-5 -0.387266 0.036758 0.271899
-5 -0.408489 0 0.271899
-5 -0.4 0 0.271899
1 2 8
2 3 9
3 4 10
4 5 11
5 6 12
6 7 13
2 9 8
3 10 9
4 11 10
5 12 11
6 13 12
8 9 14
9 10 15
10 11 16
11 12 17
12 13 18
9 15 14
10 16 15
11 17 16
12 18 17
14 15 19
15 16 20
16 17 21
17 18 22
15 20 19
16 21 20
17 22 21
19 20 23
20 21 24
21 22 25
20 24 23
21 25 24
23 24 26
24 25 27
24 27 26
26 27 28
ZONE T="Face 6", N=28, E=36, F=FEPOINT, ET=TRIANGLE
-5 -0.24999 0.433017 1
-5 -0.262724 0.396259 1
-5 -0.289829 0.318019 1
-5 -0.324995 0.216509 1
-5 -0.360161 0.114999 1
-5 -0.387266 0.036758 1
-5 -0.4 0 1
-5 -0.245498 0.425814 1
-5 -0.260294 0.378062 1
-5 -0.28941 0.287559 1
-5 -0.326479 0.180555 1
-5 -0.362548 0.0828964 1
-5 -0.382774 0.0295549 1
-5 -0.235938 0.410482 1
-5 -0.253593 0.349012 1
-5 -0.282356 0.260393 1
-5 -0.31714 0.165578 1
-5 -0.346109 0.0924635 1
-5 -0.223534 0.39059 1
-5 -0.240518 0.328043 1
-5 -0.266996 0.251613 1
-5 -0.298539 0.174081 1
-5 -0.21113 0.370698 1
-5 -0.224226 0.320221 1
-5 -0.250969 0.255699 1
-5 -0.201569 0.355366 1
-5 -0.214304 0.318608 1
-5 -0.197078 0.348163 1
1 2 8
2 3 9
3 4 10
4 5 11
5 6 12
6 7 13
2 9 8
3 10 9
4 11 10
5 12 11
6 13 12
8 9 14
9 10 15
10 11 16
11 12 17
12 13 18
9 15 14
10 16 15
11 17 16
12 18 17
14 15 19
15 16 20
16 17 21
17 18 22
15 20 19
16 21 20
17 22 21
19 20 23
20 21 24
21 22 25
20 24 23
21 25 24
23 24 26
24 25 27
24 27 26
26 27 28
ZONE T="Face 7", N=28, E=36, F=FEPOINT, ET=TRIANGLE
-5 -0.5 0 0.279645
-5 -0.497511 -0.0443895 0.279645
-5 -0.48086 -0.137272 0.279645
-5 -0.433021 -0.250004 0.279645
-5 -0.359266 -0.347745 0.279645
-5 -0.287447 -0.409114 0.279645
-5 -0.24999 -0.433017 0.279645
-5 -0.474286 -0.0295548 0.279645
-5 -0.457502 -0.0902002 0.279645
-5 -0.412427 -0.196193 0.279645
-5 -0.349944 -0.305666 0.279645
-5 -0.284169 -0.386817 0.279645
-5 -0.245498 -0.425814 0.279645
-5 -0.419551 -0.0924635 0.279645
-5 -0.383843 -0.170679 0.279645
-5 -0.330544 -0.269726 0.279645
-5 -0.277142 -0.355149 0.279645
-5 -0.235938 -0.410482 0.279645
-5 -0.348539 -0.174081 0.279645
-5 -0.303127 -0.253874 0.279645
-5 -0.259344 -0.331166 0.279645
-5 -0.223534 -0.39059 0.279645
-5 -0.277527 -0.255699 0.279645
-5 -0.236321 -0.320831 0.279645
-5 -0.21113 -0.370698 0.279645
-5 -0.222792 -0.318608 0.279645
-5 -0.201569 -0.355366 0.279645
-5 -0.197078 -0.348163 0.279645
1 2 8
2 3 9
3 4 10
4 5 11
5 6 12
6 7 13
2 9 8
3 10 9
4 11 10
5 12 11
6 13 12
8 9 14
9 10 15
10 11 16
11 12 17
12 13 18
9 15 14
10 16 15
11 17 16
12 18 17
14 15 19
15 16 20
16 17 21
17 18 22
15 20 19
16 21 20
17 22 21
19 20 23
20 21 24
21 22 25
20 24 23
21 25 24
23 24 26
24 25 27
24 27 26
26 27 28
ZONE T="Face 8", N=28, E=36, F=FEPOINT, ET=TRIANGLE
-5 -0.5 0 1
-5 -0.474286 -0.0295548 1
-5 -0.419551 -0.0924635 1
-5 -0.348539 -0.174081 1
-5 -0.277527 -0.255699 1
-5 -0.222792 -0.318608 1
-5 -0.197078 -0.348163 1
-5 -0.491511 0 1
-5 -0.457243 -0.0369459 1
-5 -0.392826 -0.10786 1
-5 -0.31797 -0.193895 1
-5 -0.250757 -0.274271 1
-5 -0.214304 -0.318608 1
-5 -0.473442 0 1
-5 -0.428643 -0.0464072 1
-5 -0.365693 -0.116054 1
-5 -0.30032 -0.193895 1
-5 -0.250969 -0.255699 1
-5 -0.45 0 1
-5 -0.403932 -0.0464072 1
-5 -0.350464 -0.10786 1
-5 -0.298539 -0.174081 1
-5 -0.426558 0 1
-5 -0.389078 -0.0369459 1
-5 -0.346109 -0.0924635 1
-5 -0.408489 0 1
-5 -0.382774 -0.0295548 1
-5 -0.4 0 1
1 2 8
2 3 9
3 4 10
4 5 11
5 6 12
6 7 13
2 9 8
3 10 9
4 11 10
5 12 11
6 13 12
8 9 14
9 10 15
10 11 16
11 12 17
12 13 18
9 15 14
10 16 15
11 17 16
12 18 17
14 15 19
15 16 20
16 17 21
17 18 22
15 20 19
16 21 20
17 22 21
19 20 23
20 21 24
21 22 25
20 24 23
21 25 24
23 24 26
24 25 27
24 27 26
26 27 28
ZONE T="Face 9", N=28, E=36, F=FEPOINT, ET=TRIANGLE
-5 -0.24999 -0.433017 0.269635
-5 -0.210563 -0.453501 0.269635
-5 -0.12151 -0.48501 0.269635
-5 0 -0.5 0.269635
-5 0.12151 -0.48501 0.269635
-5 0.210562 -0.4535 0.269635
-5 0.24999 -0.433018 0.269635
-5 -0.212039 -0.425814 0.269635
-5 -0.150678 -0.440121 0.269635
-5 -0.0360289 -0.455563 0.269635
-5 0.0885665 -0.455563 0.269635
-5 0.192504 -0.440121 0.269635
-5 0.245499 -0.425814 0.269635
-5 -0.13126 -0.410482 0.269635
-5 -0.045792 -0.41807 0.269635
-5 0.0656927 -0.421397 0.269635
-5 0.1679 -0.41807 0.269635
-5 0.235938 -0.410482 0.269635
-5 -0.0264559 -0.39059 0.269635
-5 0.0660348 -0.391261 0.269635
-5 0.153474 -0.391261 0.269635
-5 0.223534 -0.39059 0.269635
-5 0.0783477 -0.370698 0.269635
-5 0.155251 -0.367469 0.269635
-5 0.21113 -0.370698 0.269635
-5 0.159127 -0.355366 0.269635
-5 0.20157 -0.355366 0.269635
-5 0.197078 -0.348163 0.269635
1 2 8
2 3 9
3 4 10
4 5 11
5 6 12
6 7 13
2 9 8
3 10 9
4 11 10
5 12 11
6 13 12
8 9 14
9 10 15
10 11 16
11 12 17
12 13 18
9 15 14
10 16 15
11 17 16
12 18 17
14 15 19
15 16 20
16 17 21
17 18 22
15 20 19
16 21 20
17 22 21
19 20 23
20 21 24
21 22 25
20 24 23
21 25 24
23 24 26
24 25 27
24 27 26
26 27 28
ZONE T="Face 10", N=28, E=36, F=FEPOINT, ET=TRIANGLE
-5 -0.24999 -0.433017 1
-5 -0.212039 -0.425814 1
-5 -0.13126 -0.410482 1
-5 -0.0264559 -0.39059 1
-5 0.0783477 -0.370698 1
-5 0.159127 -0.355366 1
-5 0.197078 -0.348163 1
-5 -0.245498 -0.425814 1
-5 -0.196934 -0.415008 1
-5 -0.104436 -0.395419 1
-5 0.00603944 -0.374451 1
-5 0.10781 -0.357167 1
-5 0.163619 -0.348163 1
-5 -0.235938 -0.410482 1
-5 -0.174007 -0.395419 1
-5 -0.0833299 -0.376448 1
-5 0.0153787 -0.359473 1
-5 0.0923999 -0.348163 1
-5 -0.223534 -0.39059 1
-5 -0.160932 -0.37445 1
-5 -0.0820218 -0.359473 1
-5 1.05e-07 -0.348163 1
-5 -0.21113 -0.370698 1
-5 -0.160866 -0.357167 1
-5 -0.0923997 -0.348163 1
-5 -0.201569 -0.355366 1
-5 -0.163619 -0.348163 1
-5 -0.197078 -0.348163 1
1 2 8
2 3 9
3 4 10
4 5 11
5 6 12
6 7 13
2 9 8
3 10 9
4 11 10
5 12 11
6 13 12
8 9 14
9 10 15
10 11 16
11 12 17
12 13 18
9 15 14
10 16 15
11 17 16
12 18 17
14 15 19
15 16 20
16 17 21
17 18 22
15 20 19
16 21 20
17 22 21
19 20 23
20 21 24
21 22 25
20 24 23
21 25 24
23 24 26
24 25 27
24 27 26
26 27 28
ZONE T="Face 11", N=28, E=36, F=FEPOINT, ET=TRIANGLE
-5 0.24999 -0.433018 0.271894
-5 0.287447 -0.409115 0.271894
-5 0.359266 -0.347745 0.271894
-5 0.433021 -0.250004 0.271894
-5 0.48086 -0.137273 0.271894
-5 0.497511 -0.0443893 0.271894
-5 0.5 0 0.271894
-5 0.262724 -0.39626 0.271894
-5 0.305723 -0.349892 0.271894
-5 0.377038 -0.259291 0.271894
-5 0.439528 -0.149813 0.271894
-5 0.479055 -0.0532609 0.271894
-5 0.491511 0 0.271894
-5 0.289829 -0.318019 0.271894
-5 0.340047 -0.247322 0.271894
-5 0.398257 -0.153711 0.271894
-5 0.446755 -0.062839 0.271894
-5 0.473442 0 0.271894
-5 0.324995 -0.216509 0.271894
-5 0.372399 -0.137304 0.271894
-5 0.416189 -0.0600054 0.271894
-5 0.45 0 0.271894
-5 0.360161 -0.114999 0.271894
-5 0.396209 -0.0465801 0.271894
-5 0.426558 0 0.271894
-5 0.387266 -0.036758 0.271894
-5 0.408489 0 0.271894
-5 0.4 0 0.271894
1 2 8
2 3 9
3 4 10
4 5 11
5 6 12
6 7 13
2 9 8
3 10 9
4 11 10
5 12 11
6 13 12
8 9 14
9 10 15
10 11 16
11 12 17
12 13 18
9 15 14
10 16 15
11 17 16
12 18 17
14 15 19
15 16 20
16 17 21
17 18 22
15 20 19
16 21 20
17 22 21
19 20 23
20 21 24
21 22 25
20 24 23
21 25 24
23 24 26
24 25 27
24 27 26
26 27 28
ZONE T="Face 12", N=28, E=36, F=FEPOINT, ET=TRIANGLE
-5 0.24999 -0.433018 1
-5 0.262724 -0.39626 1
-5 0.289829 -0.318019 1
-5 0.324995 -0.216509 1
-5 0.360161 -0.114999 1
-5 0.387266 -0.036758 1
-5 0.4 0 1
-5 0.245499 -0.425814 1
-5 0.260294 -0.378063 1
-5 0.28941 -0.287559 1
-5 0.326479 -0.180555 1
-5 0.362548 -0.0828965 1
-5 0.382774 -0.0295549 1
-5 0.235938 -0.410482 1
-5 0.253593 -0.349012 1
-5 0.282356 -0.260393 1
-5 0.31714 -0.165578 1
-5 0.346109 -0.0924636 1
-5 0.223534 -0.39059 1
-5 0.240518 -0.328043 1
-5 0.266996 -0.251613 1
-5 0.298539 -0.174081 1
-5 0.21113 -0.370698 1
-5 0.224226 -0.320221 1
-5 0.250969 -0.255699 1
-5 0.20157 -0.355366 1
-5 0.214304 -0.318608 1
-5 0.197078 -0.348163 1
1 2 8
2 3 9
3 4 10
4 5 11
5 6 12
6 7 13
2 9 8
3 10 9
4 11 10
5 12 11
6 13 12
8 9 14
9 10 15
10 11 16
11 12 17
12 13 18
9 15 14
10 16 15
11 17 16
12 18 17
14 15 19
15 16 20
16 17 21
17 18 22
15 20 19
16 21 20
17 22 21
19 20 23
20 21 24
21 22 25
20 24 23
21 25 24
23 24 26
24 25 27
24 27 26
26 27 28
ZONE T="Face 13", N=28, E=36, F=FEPOINT, ET=TRIANGLE
-5 -0.197078 -0.348163 1
-5 -0.163619 -0.348163 1
-5 -0.0923997 -0.348163 1
-5 1.05e-07 -0.348163 1
-5 0.0923999 -0.348163 1
-5 0.163619 -0.348163 1
-5 0.197078 -0.348163 1
-5 -0.163619 -0.289053 1
-5 -0.113425 -0.274271 1
-5 -0.0224313 -0.255348 1
-5 0.0749693 -0.255348 1
-5 0.155251 -0.274271 1
-5 0.197078 -0.289053 1
-5 -0.0923997 -0.163236 1
-5 -0.0224313 -0.132442 1
-5 0.0656928 -0.116054 1
-5 0.14454 -0.132442 1
-5 0.197078 -0.163236 1
-5 1.05e-07 1.5e-07 1
-5 0.0749693 0.0396279 1
-5 0.14454 0.0396279 1
-5 0.197078 3e-08 1
-5 0.0923999 0.163236 1
-5 0.155251 0.200379 1
-5 0.197078 0.163236 1
-5 0.163619 0.289053 1
-5 0.197078 0.289053 1
-5 0.197078 0.348163 1
1 2 8
2 3 9
3 4 10
4 5 11
5 6 12
6 7 13
2 9 8
3 10 9
4 11 10
5 12 11
6 13 12
8 9 14
9 10 15
10 11 16
11 12 17
12 13 18
9 15 14
10 16 15
11 17 16
12 18 17
14 15 19
15 16 20
16 17 21
17 18 22
15 20 19
16 21 20
17 22 21
19 20 23
20 21 24
21 22 25
20 24 23
21 25 24
23 24 26
24 25 27
24 27 26
26 27 28
ZONE T="Face 14", N=28, E=36, F=FEPOINT, ET=TRIANGLE
-5 0.197078 0.348163 1
-5 0.163619 0.348163 1
-5 0.0923999 0.348163 1
-5 1.05e-07 0.348163 1
-5 -0.0923997 0.348163 1
-5 -0.163619 0.348163 1
-5 -0.197078 0.348163 1
-5 0.163619 0.289053 1
-5 0.113425 0.274271 1
-5 0.0224315 0.255348 1
-5 -0.0749691 0.255348 1
-5 -0.155251 0.274271 1
-5 -0.197078 0.289053 1
-5 0.0923999 0.163236 1
-5 0.0224315 0.132442 1
-5 -0.0656926 0.116054 1
-5 -0.14454 0.132442 1
-5 -0.197078 0.163236 1
-5 1.05e-07 1.5e-07 1
-5 -0.0749691 -0.0396277 1
-5 -0.14454 -0.0396277 1
-5 -0.197078 4.5e-08 1
-5 -0.0923997 -0.163236 1
-5 -0.155251 -0.200379 1
-5 -0.197078 -0.163236 1
-5 -0.163619 -0.289053 1
-5 -0.197078 -0.289053 1
-5 -0.197078 -0.348163 1
1 2 8
2 3 9
3 4 10
4 5 11
5 6 12
6 7 13
2 9 8
3 10 9
4 11 10
5 12 11
6 13 12
8 9 14
9 10 15
10 11 16
11 12 17
12 13 18
9 15 14
10 16 15
11 17 16
12 18 17
14 15 19
15 16 20
16 17 21
17 18 22
15 20 19
16 21 20
17 22 21
19 20 23
20 21 24
21 22 25
20 24 23
21 25 24
23 24 26
24 25 27
24 27 26
26 27 28
ZONE T="Face 15", N=28, E=36, F=FEPOINT, ET=TRIANGLE
-5 -0.4 0 1
-5 -0.382774 -0.0295548 1
-5 -0.346109 -0.0924635 1
-5 -0.298539 -0.174081 1
-5 -0.250969 -0.255699 1
-5 -0.214304 -0.318608 1
-5 -0.197078 -0.348163 1
-5 -0.382774 0.0295549 1
-5 -0.356933 9.55052e-09 1
-5 -0.310087 -0.0614529 1
-5 -0.259943 -0.147488 1
-5 -0.218611 -0.237325 1
-5 -0.197078 -0.289053 1
-5 -0.346109 0.0924635 1
-5 -0.310087 0.0614529 1
-5 -0.264719 3e-08 1
-5 -0.224126 -0.086035 1
-5 -0.197078 -0.163236 1
-5 -0.298539 0.174081 1
-5 -0.259943 0.147488 1
-5 -0.224126 0.0860351 1
-5 -0.197078 4.5e-08 1
-5 -0.250969 0.255699 1
-5 -0.218611 0.237325 1
-5 -0.197078 0.163236 1
-5 -0.214304 0.318608 1
-5 -0.197078 0.289053 1
-5 -0.197078 0.348163 1
1 2 8
2 3 9
3 4 10
4 5 11
5 6 12
6 7 13
2 9 8
3 10 9
4 11 10
5 12 11
6 13 12
8 9 14
9 10 15
10 11 16
11 12 17
12 13 18
9 15 14
10 16 15
11 17 16
12 18 17
14 15 19
15 16 20
16 17 21
17 18 22
15 20 19
16 21 20
17 22 21
19 20 23
20 21 24
21 22 25
20 24 23
21 25 24
23 24 26
24 25 27
24 27 26
26 27 28
ZONE T="Face 16", N=28, E=36, F=FEPOINT, ET=TRIANGLE
-5 0.197078 -0.348163 1
-5 0.214304 -0.318608 1
-5 0.250969 -0.255699 1
-5 0.298539 -0.174081 1
-5 0.346109 -0.0924636 1
-5 0.382774 -0.0295549 1
-5 0.4 0 1
-5 0.197078 -0.289053 1
-5 0.218612 -0.237325 1
-5 0.259943 -0.147488 1
-5 0.310087 -0.0614529 1
-5 0.356933 6.36702e-09 1
-5 0.382774 0.0295549 1
-5 0.197078 -0.163236 1
-5 0.224126 -0.0860351 1
-5 0.264719 2.00002e-08 1
-5 0.310087 0.061453 1
-5 0.346109 0.0924636 1
-5 0.197078 3e-08 1
-5 0.224126 0.0860351 1
-5 0.259943 0.147488 1
-5 0.298539 0.174081 1
-5 0.197078 0.163236 1
-5 0.218612 0.237325 1
-5 0.250969 0.255699 1
-5 0.197078 0.289053 1
-5 0.214304 0.318608 1
-5 0.197078 0.348163 1
1 2 8
2 3 9
3 4 10
4 5 11
5 6 12
6 7 13
2 9 8
3 10 9
4 11 10
5 12 11
6 13 12
8 9 14
9 10 15
10 11 16
11 12 17
12 13 18
9 15 14
10 16 15
11 17 16
12 18 17
14 15 19
15 16 20
16 17 21
17 18 22
15 20 19
16 21 20
17 22 21
19 20 23
20 21 24
21 22 25
20 24 23
21 25 24
23 24 26
24 25 27
24 27 26
26 27 28
ZONE T="Face 17", N=28, E=36, F=FEPOINT, ET=TRIANGLE
10 0.5 0 0.279646
10 0.497511 -0.0443893 0.279646
10 0.48086 -0.137273 0.279646
10 0.433021 -0.250004 0.279646
10 0.359266 -0.347745 0.279646
10 0.287447 -0.409115 0.279646
10 0.24999 -0.433017 0.279646
10 0.474286 -0.0295549 0.279646
10 0.457502 -0.0902002 0.279646
10 0.412427 -0.196194 0.279646
10 0.349944 -0.305665 0.279646
10 0.284169 -0.386818 0.279646
10 0.245499 -0.425814 0.279646
10 0.419551 -0.0924635 0.279646
10 0.383844 -0.170679 0.279646
10 0.330543 -0.269726 0.279646
10 0.277142 -0.355149 0.279646
10 0.235938 -0.410482 0.279646
10 0.348539 -0.174081 0.279646
10 0.303127 -0.253874 0.279646
10 0.259344 -0.331166 0.279646
10 0.223534 -0.39059 0.279646
10 0.277527 -0.255699 0.279646
10 0.236322 -0.320831 0.279646
10 0.21113 -0.370698 0.279646
10 0.222793 -0.318608 0.279646
10 0.20157 -0.355366 0.279646
10 0.197078 -0.348163 0.279646
1 2 8
2 3 9
3 4 10
4 5 11
5 6 12
6 7 13
2 9 8
3 10 9
4 11 10
5 12 11
6 13 12
8 9 14
9 10 15
10 11 16
11 12 17
12 13 18
9 15 14
10 16 15
11 17 16
12 18 17
14 15 19
15 16 20
16 17 21
17 18 22
15 20 19
16 21 20
17 22 21
19 20 23
20 21 24
21 22 25
20 24 23
21 25 24
23 24 26
24 25 27
24 27 26
26 27 28
ZONE T="Face 18", N=28, E=36, F=FEPOINT, ET=TRIANGLE
10 0.5 0 1
10 0.474286 -0.0295549 1
10 0.419551 -0.0924635 1
10 0.348539 -0.174081 1
10 0.277527 -0.255699 1
10 0.222793 -0.318608 1
10 0.197078 -0.348163 1
10 0.491511 0 1
10 0.457243 -0.036946 1
10 0.392826 -0.10786 1
10 0.317971 -0.193895 1
10 0.250757 -0.274271 1
10 0.214304 -0.318608 1
10 0.473442 0 1
10 0.428643 -0.0464073 1
10 0.365693 -0.116054 1
10 0.30032 -0.193895 1
10 0.250969 -0.255699 1
10 0.45 0 1
10 0.403932 -0.0464073 1
10 0.350464 -0.10786 1
10 0.298539 -0.174081 1
10 0.426558 0 1
10 0.389078 -0.036946 1
10 0.346109 -0.0924635 1
10 0.408489 0 1
10 0.382774 -0.0295549 1
10 0.4 0 1
1 2 8
2 3 9
3 4 10
4 5 11
5 6 12
6 7 13
2 9 8
3 10 9
4 11 10
5 12 11
6 13 12
8 9 14
9 10 15
10 11 16
11 12 17
12 13 18
9 15 14
10 16 15
11 17 16
12 18 17
14 15 19
15 16 20
16 17 21
17 18 22
15 20 19
16 21 20
17 22 21
19 20 23
20 21 24
21 22 25
20 24 23
21 25 24
23 24 26
24 25 27
24 27 26
26 27 28
ZONE T="Face 19", N=28, E=36, F=FEPOINT, ET=TRIANGLE
10 0.24999 -0.433017 0.269638
10 0.210563 -0.4535 0.269638
10 0.12151 -0.48501 0.269638
10 0 -0.5 0.269638
10 -0.12151 -0.48501 0.269638
10 -0.210562 -0.453501 0.269638
10 -0.24999 -0.433017 0.269638
10 0.212039 -0.425814 0.269638
10 0.150678 -0.440121 0.269638
10 0.0360287 -0.455563 0.269638
10 -0.0885666 -0.455563 0.269638
10 -0.192504 -0.440121 0.269638
10 -0.245498 -0.425814 0.269638
10 0.13126 -0.410482 0.269638
10 0.0457917 -0.418069 0.269638
10 -0.0656926 -0.421397 0.269638
10 -0.167901 -0.41807 0.269638
10 -0.235938 -0.410482 0.269638
10 0.0264562 -0.39059 0.269638
10 -0.0660348 -0.391261 0.269638
10 -0.153474 -0.391261 0.269638
10 -0.223534 -0.39059 0.269638
10 -0.0783474 -0.370698 0.269638
10 -0.155251 -0.367469 0.269638
10 -0.21113 -0.370698 0.269638
10 -0.159127 -0.355366 0.269638
10 -0.201569 -0.355366 0.269638
10 -0.197078 -0.348163 0.269638
1 2 8
2 3 9
3 4 10
4 5 11
5 6 12
6 7 13
2 9 8
3 10 9
4 11 10
5 12 11
6 13 12
8 9 14
9 10 15
10 11 16
11 12 17
12 13 18
9 15 14
10 16 15
11 17 16
12 18 17
14 15 19
15 16 20
16 17 21
17 18 22
15 20 19
16 21 20
17 22 21
19 20 23
20 21 24
21 22 25
20 24 23
21 25 24
23 24 26
24 25 27
24 27 26
26 27 28
ZONE T="Face 20", N=28, E=36, F=FEPOINT, ET=TRIANGLE
10 0.24999 -0.433017 1
10 0.212039 -0.425814 1
10 0.13126 -0.410482 1
10 0.0264562 -0.39059 1
10 -0.0783474 -0.370698 1
10 -0.159127 -0.355366 1
10 -0.197078 -0.348163 1
10 0.245499 -0.425814 1
10 0.196934 -0.415008 1
10 0.104437 -0.395419 1
10 -0.00603914 -0.374451 1
10 -0.10781 -0.357167 1
10 -0.163619 -0.348163 1
10 0.235938 -0.410482 1
10 0.174008 -0.395419 1
10 0.0833302 -0.376448 1
10 -0.0153784 -0.359473 1
10 -0.0923996 -0.348163 1
10 0.223534 -0.39059 1
10 0.160932 -0.374451 1
10 0.0820221 -0.359473 1
10 2.1e-07 -0.348163 1
10 0.21113 -0.370698 1
10 0.160866 -0.357167 1
10 0.0924 -0.348163 1
10 0.20157 -0.355366 1
10 0.163619 -0.348163 1
10 0.197078 -0.348163 1
1 2 8
2 3 9
3 4 10
4 5 11
5 6 12
6 7 13
2 9 8
3 10 9
4 11 10
5 12 11
6 13 12
8 9 14
9 10 15
10 11 16
11 12 17
12 13 18
9 15 14
10 16 15
11 17 16
12 18 17
14 15 19
15 16 20
16 17 21
17 18 22
15 20 19
16 21 20
17 22 21
19 20 23
20 21 24
21 22 25
20 24 23
21 25 24
23 24 26
24 25 27
24 27 26
26 27 28
ZONE T="Face 21", N=28, E=36, F=FEPOINT, ET=TRIANGLE
10 -0.24999 -0.433017 0.271898
10 -0.287447 -0.409114 0.271898
10 -0.359266 -0.347745 0.271898
10 -0.433021 -0.250004 0.271898
10 -0.48086 -0.137272 0.271898
10 -0.497511 -0.0443895 0.271898
10 -0.5 0 0.271898
10 -0.262724 -0.396259 0.271898
10 -0.305722 -0.349891 0.271898
10 -0.377038 -0.259291 0.271898
10 -0.439528 -0.149812 0.271898
10 -0.479055 -0.0532608 0.271898
10 -0.491511 0 0.271898
10 -0.289829 -0.318019 0.271898
10 -0.340046 -0.247322 0.271898
10 -0.398257 -0.153711 0.271898
10 -0.446754 -0.0628386 0.271898
10 -0.473442 0 0.271898
10 -0.324995 -0.216509 0.271898
10 -0.372399 -0.137304 0.271898
10 -0.416189 -0.060005 0.271898
10 -0.45 0 0.271898
10 -0.360161 -0.114999 0.271898
10 -0.396209 -0.0465802 0.271898
10 -0.426558 0 0.271898
10 -0.387266 -0.036758 0.271898
10 -0.408489 0 0.271898
10 -0.4 0 0.271898
1 2 8
2 3 9
3 4 10
4 5 11
5 6 12
6 7 13
2 9 8
3 10 9
4 11 10
5 12 11
6 13 12
8 9 14
9 10 15
10 11 16
11 12 17
12 13 18
9 15 14
10 16 15
11 17 16
12 18 17
14 15 19
15 16 20
16 17 21
17 18 22
15 20 19
16 21 20
17 22 21
19 20 23
20 21 24
21 22 25
20 24 23
21 25 24
23 24 26
24 25 27
24 27 26
26 27 28
ZONE T="Face 22", N=28, E=36, F=FEPOINT, ET=TRIANGLE
10 -0.24999 -0.433017 1
10 -0.262724 -0.396259 1
10 -0.289829 -0.318019 1
10 -0.324995 -0.216509 1
10 -0.360161 -0.114999 1
10 -0.387266 -0.036758 1
10 -0.4 0 1
10 -0.245498 -0.425814 1
10 -0.260294 -0.378062 1
10 -0.28941 -0.287559 1
10 -0.326479 -0.180555 1
10 -0.362548 -0.0828964 1
10 -0.382774 -0.0295549 1
10 -0.235938 -0.410482 1
10 -0.253593 -0.349012 1
10 -0.282356 -0.260393 1
10 -0.31714 -0.165578 1
10 -0.346109 -0.0924635 1
10 -0.223534 -0.39059 1
10 -0.240518 -0.328043 1
10 -0.266995 -0.251613 1
10 -0.298539 -0.174081 1
10 -0.21113 -0.370698 1
10 -0.224226 -0.320221 1
10 -0.250969 -0.255699 1
10 -0.201569 -0.355366 1
10 -0.214303 -0.318608 1
10 -0.197078 -0.348163 1
1 2 8
2 3 9
3 4 10
4 5 11
5 6 12
6 7 13
2 9 8
3 10 9
4 11 10
5 12 11
6 13 12
8 9 14
9 10 15
10 11 16
11 12 17
12 13 18
9 15 14
10 16 15
11 17 16
12 18 17
14 15 19
15 16 20
16 17 21
17 18 22
15 20 19
16 21 20
17 22 21
19 20 23
20 21 24
21 22 25
20 24 23
21 25 24
23 24 26
24 25 27
24 27 26
26 27 28
ZONE T="Face 23", N=28, E=36, F=FEPOINT, ET=TRIANGLE
10 -0.5 0 0.279645
10 -0.497511 0.0443895 0.279645
10 -0.48086 0.137272 0.279645
10 -0.433021 0.250004 0.279645
10 -0.359266 0.347745 0.279645
10 -0.287447 0.409114 0.279645
10 -0.24999 0.433017 0.279645
10 -0.474286 0.0295548 0.279645
10 -0.457502 0.0902002 0.279645
10 -0.412427 0.196193 0.279645
10 -0.349944 0.305666 0.279645
10 -0.284169 0.386817 0.279645
10 -0.245498 0.425814 0.279645
10 -0.419551 0.0924635 0.279645
10 -0.383843 0.170679 0.279645
10 -0.330544 0.269726 0.279645
10 -0.277142 0.355149 0.279645
10 -0.235938 0.410482 0.279645
10 -0.348539 0.174081 0.279645
10 -0.303127 0.253874 0.279645
10 -0.259344 0.331166 0.279645
10 -0.223534 0.39059 0.279645
10 -0.277527 0.255699 0.279645
10 -0.236321 0.320831 0.279645
10 -0.21113 0.370698 0.279645
10 -0.222792 0.318608 0.279645
10 -0.201569 0.355366 0.279645
10 -0.197078 0.348163 0.279645
1 2 8
2 3 9
3 4 10
4 5 11
5 6 12
6 7 13
2 9 8
3 10 9
4 11 10
5 12 11
6 13 12
8 9 14
9 10 15
10 11 16
11 12 17
12 13 18
9 15 14
10 16 15
11 17 16
12 18 17
14 15 19
15 16 20
16 17 21
17 18 22
15 20 19
16 21 20
17 22 21
19 20 23
20 21 24
21 22 25
20 24 23
21 25 24
23 24 26
24 25 27
24 27 26
26 27 28
ZONE T="Face 24", N=28, E=36, F=FEPOINT, ET=TRIANGLE
10 -0.5 0 1
10 -0.474286 0.0295548 1
10 -0.419551 0.0924635 1
10 -0.348539 0.174081 1
10 -0.277527 0.255699 1
10 -0.222792 0.318608 1
10 -0.197078 0.348163 1
10 -0.491511 0 1
10 -0.457243 0.036946 1
10 -0.392826 0.10786 1
10 -0.31797 0.193895 1
10 -0.250756 0.274271 1
10 -0.214303 0.318608 1
10 -0.473442 0 1
10 -0.428643 0.0464072 1
10 -0.365693 0.116054 1
10 -0.30032 0.193895 1
10 -0.250969 0.255699 1
10 -0.45 0 1
10 -0.403932 0.0464072 1
10 -0.350464 0.10786 1
10 -0.298539 0.174081 1
10 -0.426558 0 1
10 -0.389078 0.036946 1
10 -0.346109 0.0924635 1
10 -0.408489 0 1
10 -0.382774 0.0295548 1
10 -0.4 0 1
1 2 8
2 3 9
3 4 10
4 5 11
5 6 12
6 7 13
2 9 8
3 10 9
4 11 10
5 12 11
6 13 12
8 9 14
9 10 15
10 11 16
11 12 17
12 13 18
9 15 14
10 16 15
11 17 16
12 18 17
14 15 19
15 16 20
16 17 21
17 18 22
15 20 19
16 21 20
17 22 21
19 20 23
20 21 24
21 22 25
20 24 23
21 25 24
23 24 26
24 25 27
24 27 26
26 27 28
ZONE T="Face 25", N=28, E=36, F=FEPOINT, ET=TRIANGLE
10 -0.24999 0.433017 0.269634
10 -0.210562 0.453501 0.269634
10 -0.12151 0.48501 0.269634
10 0 0.5 0.269634
10 0.12151 0.48501 0.269634
10 0.210563 0.4535 0.269634
10 0.24999 0.433018 0.269634
10 -0.212039 0.425814 0.269634
10 -0.150678 0.440121 0.269634
10 -0.0360289 0.455563 0.269634
10 0.0885665 0.455563 0.269634
10 0.192504 0.440121 0.269634
10 0.245499 0.425814 0.269634
10 -0.131259 0.410482 0.269634
10 -0.0457918 0.41807 0.269634
10 0.0656927 0.421397 0.269634
10 0.167901 0.41807 0.269634
10 0.235938 0.410482 0.269634
10 -0.0264558 0.39059 0.269634
10 0.0660349 0.391261 0.269634
10 0.153475 0.391261 0.269634
10 0.223534 0.39059 0.269634
10 0.0783478 0.370698 0.269634
10 0.155252 0.367469 0.269634
10 0.21113 0.370698 0.269634
10 0.159127 0.355366 0.269634
10 0.20157 0.355366 0.269634
10 0.197078 0.348163 0.269634
1 2 8
2 3 9
3 4 10
4 5 11
5 6 12
6 7 13
2 9 8
3 10 9
4 11 10
5 12 11
6 13 12
8 9 14
9 10 15
10 11 16
11 12 17
12 13 18
9 15 14
10 16 15
11 17 16
12 18 17
14 15 19
15 16 20
16 17 21
17 18 22
15 20 19
16 21 20
17 22 21
19 20 23
20 21 24
21 22 25
20 24 23
21 25 24
23 24 26
24 25 27
24 27 26
26 27 28
ZONE T="Face 26", N=28, E=36, F=FEPOINT, ET=TRIANGLE
10 -0.24999 0.433017 1
10 -0.212039 0.425814 1
10 -0.131259 0.410482 1
10 -0.0264558 0.39059 1
10 0.0783478 0.370698 1
10 0.159127 0.355366 1
10 0.197078 0.348163 1
10 -0.245498 0.425814 1
10 -0.196933 0.415008 1
10 -0.104436 0.395419 1
10 0.00603954 0.374451 1
10 0.10781 0.357167 1
10 0.163619 0.348163 1
10 -0.235938 0.410482 1
10 -0.174007 0.395419 1
10 -0.0833298 0.376448 1
10 0.0153788 0.359473 1
10 0.0924 0.348163 1
10 -0.223534 0.39059 1
10 -0.160932 0.374451 1
10 -0.0820217 0.359473 1
10 1.95e-07 0.348163 1
10 -0.21113 0.370698 1
10 -0.160866 0.357167 1
10 -0.0923996 0.348163 1
10 -0.201569 0.355366 1
10 -0.163619 0.348163 1
10 -0.197078 0.348163 1
1 2 8
2 3 9
3 4 10
4 5 11
5 6 12
6 7 13
2 9 8
3 10 9
4 11 10
5 12 11
6 13 12
8 9 14
9 10 15
10 11 16
11 12 17
12 13 18
9 15 14
10 16 15
11 17 16
12 18 17
14 15 19
15 16 20
16 17 21
17 18 22
15 20 19
16 21 20
17 22 21
19 20 23
20 21 24
21 22 25
20 24 23
21 25 24
23 24 26
24 25 27
24 27 26
26 27 28
ZONE T="Face 27", N=28, E=36, F=FEPOINT, ET=TRIANGLE
10 0.24999 0.433018 0.271894
10 0.287447 0.409115 0.271894
10 0.359266 0.347745 0.271894
10 0.433021 0.250004 0.271894
10 0.48086 0.137273 0.271894
10 0.497511 0.0443893 0.271894
10 0.5 0 0.271894
10 0.262724 0.39626 0.271894
10 0.305723 0.349892 0.271894
10 0.377038 0.259291 0.271894
10 0.439528 0.149813 0.271894
10 0.479055 0.0532609 0.271894
10 0.491511 0 0.271894
10 0.289829 0.318019 0.271894
10 0.340047 0.247322 0.271894
10 0.398257 0.153711 0.271894
10 0.446755 0.062839 0.271894
10 0.473442 0 0.271894
10 0.324995 0.216509 0.271894
10 0.372399 0.137304 0.271894
10 0.416189 0.0600054 0.271894
10 0.45 0 0.271894
10 0.360161 0.114999 0.271894
10 0.396209 0.0465801 0.271894