<?xml version="1.0"?>
<VTKFile type="UnstructuredGrid" version="0.1" byte_order="LittleEndian">
  <UnstructuredGrid>
    <Piece NumberOfPoints="343" NumberOfCells="216">
      <Points>
        <DataArray type="Float32" NumberOfComponents="3" format="ascii">
          0 0 0 
0.0833333 0 0 
0.166667 0 0 
0.25 0 0 
0.333333 0 0 
0.416667 0 0 
0.5 0 0 
0 0.0833333 0 
0.0833333 0.0833333 0 
0.166667 0.0833333 0 
0.25 0.0833333 0 
0.333333 0.0833333 0 
0.416667 0.0833333 0 
0.5 0.0833333 0 
0 0.166667 0 
0.0833333 0.166667 0 
0.166667 0.166667 0 
0.25 0.166667 0 
0.333333 0.166667 0 
0.416667 0.166667 0 
0.5 0.166667 0 
0 0.25 0 
0.0833333 0.25 0 
0.166667 0.25 0 
0.25 0.25 0 
0.333333 0.25 0 
0.416667 0.25 0 
0.5 0.25 0 
0 0.333333 0 
0.0833333 0.333333 0 
0.166667 0.333333 0 
0.25 0.333333 0 
0.333333 0.333333 0 
0.416667 0.333333 0 
0.5 0.333333 0 
0 0.416667 0 
0.0833333 0.416667 0 
0.166667 0.416667 0 
0.25 0.416667 0 
0.333333 0.416667 0 
0.416667 0.416667 0 
0.5 0.416667 0 
0 0.5 0 
0.0833333 0.5 0 
0.166667 0.5 0 
0.25 0.5 0 
0.333333 0.5 0 
0.416667 0.5 0 
0.5 0.5 0 
0 0 0.0833333 
0.0833333 0 0.0833333 
0.166667 0 0.0833333 
0.25 0 0.0833333 
0.333333 0 0.0833333 
0.416667 0 0.0833333 
0.5 0 0.0833333 
0 0.0833333 0.0833333 
0.0833333 0.0833333 0.0833333 
0.166667 0.0833333 0.0833333 
0.25 0.0833333 0.0833333 
0.333333 0.0833333 0.0833333 
0.416667 0.0833333 0.0833333 
0.5 0.0833333 0.0833333 
0 0.166667 0.0833333 
0.0833333 0.166667 0.0833333 
0.166667 0.166667 0.0833333 
0.25 0.166667 0.0833333 
0.333333 0.166667 0.0833333 
0.416667 0.166667 0.0833333 
0.5 0.166667 0.0833333 
0 0.25 0.0833333 
0.0833333 0.25 0.0833333 
0.166667 0.25 0.0833333 
0.25 0.25 0.0833333 
0.333333 0.25 0.0833333 
0.416667 0.25 0.0833333 
0.5 0.25 0.0833333 
0 0.333333 0.0833333 
0.0833333 0.333333 0.0833333 
0.166667 0.333333 0.0833333 
0.25 0.333333 0.0833333 
0.333333 0.333333 0.0833333 
0.416667 0.333333 0.0833333 
0.5 0.333333 0.0833333 
0 0.416667 0.0833333 
0.0833333 0.416667 0.0833333 
0.166667 0.416667 0.0833333 
0.25 0.416667 0.0833333 
0.333333 0.416667 0.0833333 
0.416667 0.416667 0.0833333 
0.5 0.416667 0.0833333 
0 0.5 0.0833333 
0.0833333 0.5 0.0833333 
0.166667 0.5 0.0833333 
0.25 0.5 0.0833333 
0.333333 0.5 0.0833333 
0.416667 0.5 0.0833333 
0.5 0.5 0.0833333 
0 0 0.166667 
0.0833333 0 0.166667 
0.166667 0 0.166667 
0.25 0 0.166667 
0.333333 0 0.166667 
0.416667 0 0.166667 
0.5 0 0.166667 
0 0.0833333 0.166667 
0.0833333 0.0833333 0.166667 
0.166667 0.0833333 0.166667 
0.25 0.0833333 0.166667 
0.333333 0.0833333 0.166667 
0.416667 0.0833333 0.166667 
0.5 0.0833333 0.166667 
0 0.166667 0.166667 
0.0833333 0.166667 0.166667 
0.166667 0.166667 0.166667 
0.25 0.166667 0.166667 
0.333333 0.166667 0.166667 
0.416667 0.166667 0.166667 
0.5 0.166667 0.166667 
0 0.25 0.166667 
0.0833333 0.25 0.166667 
0.166667 0.25 0.166667 
0.25 0.25 0.166667 
0.333333 0.25 0.166667 
0.416667 0.25 0.166667 
0.5 0.25 0.166667 
0 0.333333 0.166667 
0.0833333 0.333333 0.166667 
0.166667 0.333333 0.166667 
0.25 0.333333 0.166667 
0.333333 0.333333 0.166667 
0.416667 0.333333 0.166667 
0.5 0.333333 0.166667 
0 0.416667 0.166667 
0.0833333 0.416667 0.166667 
0.166667 0.416667 0.166667 
0.25 0.416667 0.166667 
0.333333 0.416667 0.166667 
0.416667 0.416667 0.166667 
0.5 0.416667 0.166667 
0 0.5 0.166667 
0.0833333 0.5 0.166667 
0.166667 0.5 0.166667 
0.25 0.5 0.166667 
0.333333 0.5 0.166667 
0.416667 0.5 0.166667 
0.5 0.5 0.166667 
0 0 0.25 
0.0833333 0 0.25 
0.166667 0 0.25 
0.25 0 0.25 
0.333333 0 0.25 
0.416667 0 0.25 
0.5 0 0.25 
0 0.0833333 0.25 
0.0833333 0.0833333 0.25 
0.166667 0.0833333 0.25 
0.25 0.0833333 0.25 
0.333333 0.0833333 0.25 
0.416667 0.0833333 0.25 
0.5 0.0833333 0.25 
0 0.166667 0.25 
0.0833333 0.166667 0.25 
0.166667 0.166667 0.25 
0.25 0.166667 0.25 
0.333333 0.166667 0.25 
0.416667 0.166667 0.25 
0.5 0.166667 0.25 
0 0.25 0.25 
0.0833333 0.25 0.25 
0.166667 0.25 0.25 
0.25 0.25 0.25 
0.333333 0.25 0.25 
0.416667 0.25 0.25 
0.5 0.25 0.25 
0 0.333333 0.25 
0.0833333 0.333333 0.25 
0.166667 0.333333 0.25 
0.25 0.333333 0.25 
0.333333 0.333333 0.25 
0.416667 0.333333 0.25 
0.5 0.333333 0.25 
0 0.416667 0.25 
0.0833333 0.416667 0.25 
0.166667 0.416667 0.25 
0.25 0.416667 0.25 
0.333333 0.416667 0.25 
0.416667 0.416667 0.25 
0.5 0.416667 0.25 
0 0.5 0.25 
0.0833333 0.5 0.25 
0.166667 0.5 0.25 
0.25 0.5 0.25 
0.333333 0.5 0.25 
0.416667 0.5 0.25 
0.5 0.5 0.25 
0 0 0.333333 
0.0833333 0 0.333333 
0.166667 0 0.333333 
0.25 0 0.333333 
0.333333 0 0.333333 
0.416667 0 0.333333 
0.5 0 0.333333 
0 0.0833333 0.333333 
0.0833333 0.0833333 0.333333 
0.166667 0.0833333 0.333333 
0.25 0.0833333 0.333333 
0.333333 0.0833333 0.333333 
0.416667 0.0833333 0.333333 
0.5 0.0833333 0.333333 
0 0.166667 0.333333 
0.0833333 0.166667 0.333333 
0.166667 0.166667 0.333333 
0.25 0.166667 0.333333 
0.333333 0.166667 0.333333 
0.416667 0.166667 0.333333 
0.5 0.166667 0.333333 
0 0.25 0.333333 
0.0833333 0.25 0.333333 
0.166667 0.25 0.333333 
0.25 0.25 0.333333 
0.333333 0.25 0.333333 
0.416667 0.25 0.333333 
0.5 0.25 0.333333 
0 0.333333 0.333333 
0.0833333 0.333333 0.333333 
0.166667 0.333333 0.333333 
0.25 0.333333 0.333333 
0.333333 0.333333 0.333333 
0.416667 0.333333 0.333333 
0.5 0.333333 0.333333 
0 0.416667 0.333333 
0.0833333 0.416667 0.333333 
0.166667 0.416667 0.333333 
0.25 0.416667 0.333333 
0.333333 0.416667 0.333333 
0.416667 0.416667 0.333333 
0.5 0.416667 0.333333 
0 0.5 0.333333 
0.0833333 0.5 0.333333 
0.166667 0.5 0.333333 
0.25 0.5 0.333333 
0.333333 0.5 0.333333 
0.416667 0.5 0.333333 
0.5 0.5 0.333333 
0 0 0.416667 
0.0833333 0 0.416667 
0.166667 0 0.416667 
0.25 0 0.416667 
0.333333 0 0.416667 
0.416667 0 0.416667 
0.5 0 0.416667 
0 0.0833333 0.416667 
0.0833333 0.0833333 0.416667 
0.166667 0.0833333 0.416667 
0.25 0.0833333 0.416667 
0.333333 0.0833333 0.416667 
0.416667 0.0833333 0.416667 
0.5 0.0833333 0.416667 
0 0.166667 0.416667 
0.0833333 0.166667 0.416667 
0.166667 0.166667 0.416667 
0.25 0.166667 0.416667 
0.333333 0.166667 0.416667 
0.416667 0.166667 0.416667 
0.5 0.166667 0.416667 
0 0.25 0.416667 
0.0833333 0.25 0.416667 
0.166667 0.25 0.416667 
0.25 0.25 0.416667 
0.333333 0.25 0.416667 
0.416667 0.25 0.416667 
0.5 0.25 0.416667 
0 0.333333 0.416667 
0.0833333 0.333333 0.416667 
0.166667 0.333333 0.416667 
0.25 0.333333 0.416667 
0.333333 0.333333 0.416667 
0.416667 0.333333 0.416667 
0.5 0.333333 0.416667 
0 0.416667 0.416667 
0.0833333 0.416667 0.416667 
0.166667 0.416667 0.416667 
0.25 0.416667 0.416667 
0.333333 0.416667 0.416667 
0.416667 0.416667 0.416667 
0.5 0.416667 0.416667 
0 0.5 0.416667 
0.0833333 0.5 0.416667 
0.166667 0.5 0.416667 
0.25 0.5 0.416667 
0.333333 0.5 0.416667 
0.416667 0.5 0.416667 
0.5 0.5 0.416667 
0 0 0.5 
0.0833333 0 0.5 
0.166667 0 0.5 
0.25 0 0.5 
0.333333 0 0.5 
0.416667 0 0.5 
0.5 0 0.5 
0 0.0833333 0.5 
0.0833333 0.0833333 0.5 
0.166667 0.0833333 0.5 
0.25 0.0833333 0.5 
0.333333 0.0833333 0.5 
0.416667 0.0833333 0.5 
0.5 0.0833333 0.5 
0 0.166667 0.5 
0.0833333 0.166667 0.5 
0.166667 0.166667 0.5 
0.25 0.166667 0.5 
0.333333 0.166667 0.5 
0.416667 0.166667 0.5 
0.5 0.166667 0.5 
0 0.25 0.5 
0.0833333 0.25 0.5 
0.166667 0.25 0.5 
0.25 0.25 0.5 
0.333333 0.25 0.5 
0.416667 0.25 0.5 
0.5 0.25 0.5 
0 0.333333 0.5 
0.0833333 0.333333 0.5 
0.166667 0.333333 0.5 
0.25 0.333333 0.5 
0.333333 0.333333 0.5 
0.416667 0.333333 0.5 
0.5 0.333333 0.5 
0 0.416667 0.5 
0.0833333 0.416667 0.5 
0.166667 0.416667 0.5 
0.25 0.416667 0.5 
0.333333 0.416667 0.5 
0.416667 0.416667 0.5 
0.5 0.416667 0.5 
0 0.5 0.5 
0.0833333 0.5 0.5 
0.166667 0.5 0.5 
0.25 0.5 0.5 
0.333333 0.5 0.5 
0.416667 0.5 0.5 
0.5 0.5 0.5 

        </DataArray>
      </Points>
      <Cells>
        <DataArray type="Int32" Name="connectivity" format="ascii">
0 1 8 7 49 50 57 56 
49 50 57 56 98 99 106 105 
98 99 106 105 147 148 155 154 
147 148 155 154 196 197 204 203 
196 197 204 203 245 246 253 252 
245 246 253 252 294 295 302 301 
7 8 15 14 56 57 64 63 
56 57 64 63 105 106 113 112 
105 106 113 112 154 155 162 161 
154 155 162 161 203 204 211 210 
203 204 211 210 252 253 260 259 
252 253 260 259 301 302 309 308 
14 15 22 21 63 64 71 70 
63 64 71 70 112 113 120 119 
112 113 120 119 161 162 169 168 
161 162 169 168 210 211 218 217 
210 211 218 217 259 260 267 266 
259 260 267 266 308 309 316 315 
21 22 29 28 70 71 78 77 
70 71 78 77 119 120 127 126 
119 120 127 126 168 169 176 175 
168 169 176 175 217 218 225 224 
217 218 225 224 266 267 274 273 
266 267 274 273 315 316 323 322 
28 29 36 35 77 78 85 84 
77 78 85 84 126 127 134 133 
126 127 134 133 175 176 183 182 
175 176 183 182 224 225 232 231 
224 225 232 231 273 274 281 280 
273 274 281 280 322 323 330 329 
35 36 43 42 84 85 92 91 
84 85 92 91 133 134 141 140 
133 134 141 140 182 183 190 189 
182 183 190 189 231 232 239 238 
231 232 239 238 280 281 288 287 
280 281 288 287 329 330 337 336 
1 2 9 8 50 51 58 57 
50 51 58 57 99 100 107 106 
99 100 107 106 148 149 156 155 
148 149 156 155 197 198 205 204 
197 198 205 204 246 247 254 253 
246 247 254 253 295 296 303 302 
8 9 16 15 57 58 65 64 
57 58 65 64 106 107 114 113 
106 107 114 113 155 156 163 162 
155 156 163 162 204 205 212 211 
204 205 212 211 253 254 261 260 
253 254 261 260 302 303 310 309 
15 16 23 22 64 65 72 71 
64 65 72 71 113 114 121 120 
113 114 121 120 162 163 170 169 
162 163 170 169 211 212 219 218 
211 212 219 218 260 261 268 267 
260 261 268 267 309 310 317 316 
22 23 30 29 71 72 79 78 
71 72 79 78 120 121 128 127 
120 121 128 127 169 170 177 176 
169 170 177 176 218 219 226 225 
218 219 226 225 267 268 275 274 
267 268 275 274 316 317 324 323 
29 30 37 36 78 79 86 85 
78 79 86 85 127 128 135 134 
127 128 135 134 176 177 184 183 
176 177 184 183 225 226 233 232 
225 226 233 232 274 275 282 281 
274 275 282 281 323 324 331 330 
36 37 44 43 85 86 93 92 
85 86 93 92 134 135 142 141 
134 135 142 141 183 184 191 190 
183 184 191 190 232 233 240 239 
232 233 240 239 281 282 289 288 
281 282 289 288 330 331 338 337 
2 3 10 9 51 52 59 58 
51 52 59 58 100 101 108 107 
100 101 108 107 149 150 157 156 
149 150 157 156 198 199 206 205 
198 199 206 205 247 248 255 254 
247 248 255 254 296 297 304 303 
9 10 17 16 58 59 66 65 
58 59 66 65 107 108 115 114 
107 108 115 114 156 157 164 163 
156 157 164 163 205 206 213 212 
205 206 213 212 254 255 262 261 
254 255 262 261 303 304 311 310 
16 17 24 23 65 66 73 72 
65 66 73 72 114 115 122 121 
114 115 122 121 163 164 171 170 
163 164 171 170 212 213 220 219 
212 213 220 219 261 262 269 268 
261 262 269 268 310 311 318 317 
23 24 31 30 72 73 80 79 
72 73 80 79 121 122 129 128 
121 122 129 128 170 171 178 177 
170 171 178 177 219 220 227 226 
219 220 227 226 268 269 276 275 
268 269 276 275 317 318 325 324 
30 31 38 37 79 80 87 86 
79 80 87 86 128 129 136 135 
128 129 136 135 177 178 185 184 
177 178 185 184 226 227 234 233 
226 227 234 233 275 276 283 282 
275 276 283 282 324 325 332 331 
37 38 45 44 86 87 94 93 
86 87 94 93 135 136 143 142 
135 136 143 142 184 185 192 191 
184 185 192 191 233 234 241 240 
233 234 241 240 282 283 290 289 
282 283 290 289 331 332 339 338 
3 4 11 10 52 53 60 59 
52 53 60 59 101 102 109 108 
101 102 109 108 150 151 158 157 
150 151 158 157 199 200 207 206 
199 200 207 206 248 249 256 255 
248 249 256 255 297 298 305 304 
10 11 18 17 59 60 67 66 
59 60 67 66 108 109 116 115 
108 109 116 115 157 158 165 164 
157 158 165 164 206 207 214 213 
206 207 214 213 255 256 263 262 
255 256 263 262 304 305 312 311 
17 18 25 24 66 67 74 73 
66 67 74 73 115 116 123 122 
115 116 123 122 164 165 172 171 
164 165 172 171 213 214 221 220 
213 214 221 220 262 263 270 269 
262 263 270 269 311 312 319 318 
24 25 32 31 73 74 81 80 
73 74 81 80 122 123 130 129 
122 123 130 129 171 172 179 178 
171 172 179 178 220 221 228 227 
220 221 228 227 269 270 277 276 
269 270 277 276 318 319 326 325 
31 32 39 38 80 81 88 87 
80 81 88 87 129 130 137 136 
129 130 137 136 178 179 186 185 
178 179 186 185 227 228 235 234 
227 228 235 234 276 277 284 283 
276 277 284 283 325 326 333 332 
38 39 46 45 87 88 95 94 
87 88 95 94 136 137 144 143 
136 137 144 143 185 186 193 192 
185 186 193 192 234 235 242 241 
234 235 242 241 283 284 291 290 
283 284 291 290 332 333 340 339 
4 5 12 11 53 54 61 60 
53 54 61 60 102 103 110 109 
102 103 110 109 151 152 159 158 
151 152 159 158 200 201 208 207 
200 201 208 207 249 250 257 256 
249 250 257 256 298 299 306 305 
11 12 19 18 60 61 68 67 
60 61 68 67 109 110 117 116 
109 110 117 116 158 159 166 165 
158 159 166 165 207 208 215 214 
207 208 215 214 256 257 264 263 
256 257 264 263 305 306 313 312 
18 19 26 25 67 68 75 74 
67 68 75 74 116 117 124 123 
116 117 124 123 165 166 173 172 
165 166 173 172 214 215 222 221 
214 215 222 221 263 264 271 270 
263 264 271 270 312 313 320 319 
25 26 33 32 74 75 82 81 
74 75 82 81 123 124 131 130 
123 124 131 130 172 173 180 179 
172 173 180 179 221 222 229 228 
221 222 229 228 270 271 278 277 
270 271 278 277 319 320 327 326 
32 33 40 39 81 82 89 88 
81 82 89 88 130 131 138 137 
130 131 138 137 179 180 187 186 
179 180 187 186 228 229 236 235 
228 229 236 235 277 278 285 284 
277 278 285 284 326 327 334 333 
39 40 47 46 88 89 96 95 
88 89 96 95 137 138 145 144 
137 138 145 144 186 187 194 193 
186 187 194 193 235 236 243 242 
235 236 243 242 284 285 292 291 
284 285 292 291 333 334 341 340 
5 6 13 12 54 55 62 61 
54 55 62 61 103 104 111 110 
103 104 111 110 152 153 160 159 
152 153 160 159 201 202 209 208 
201 202 209 208 250 251 258 257 
250 251 258 257 299 300 307 306 
12 13 20 19 61 62 69 68 
61 62 69 68 110 111 118 117 
110 111 118 117 159 160 167 166 
159 160 167 166 208 209 216 215 
208 209 216 215 257 258 265 264 
257 258 265 264 306 307 314 313 
19 20 27 26 68 69 76 75 
68 69 76 75 117 118 125 124 
117 118 125 124 166 167 174 173 
166 167 174 173 215 216 223 222 
215 216 223 222 264 265 272 271 
264 265 272 271 313 314 321 320 
26 27 34 33 75 76 83 82 
75 76 83 82 124 125 132 131 
124 125 132 131 173 174 181 180 
173 174 181 180 222 223 230 229 
222 223 230 229 271 272 279 278 
271 272 279 278 320 321 328 327 
33 34 41 40 82 83 90 89 
82 83 90 89 131 132 139 138 
131 132 139 138 180 181 188 187 
180 181 188 187 229 230 237 236 
229 230 237 236 278 279 286 285 
278 279 286 285 327 328 335 334 
40 41 48 47 89 90 97 96 
89 90 97 96 138 139 146 145 
138 139 146 145 187 188 195 194 
187 188 195 194 236 237 244 243 
236 237 244 243 285 286 293 292 
285 286 293 292 334 335 342 341 

        </DataArray>
        <DataArray type="Int32" Name="offsets" format="ascii">
8 16 24 32 40 48 56 64 72 80 88 96 104 112 120 128 136 144 152 160 168 176 184 192 200 208 216 224 232 240 248 256 264 272 280 288 296 304 312 320 328 336 344 352 360 368 376 384 392 400 408 416 424 432 440 448 456 464 472 480 488 496 504 512 520 528 536 544 552 560 568 576 584 592 600 608 616 624 632 640 648 656 664 672 680 688 696 704 712 720 728 736 744 752 760 768 776 784 792 800 808 816 824 832 840 848 856 864 872 880 888 896 904 912 920 928 936 944 952 960 968 976 984 992 1000 1008 1016 1024 1032 1040 1048 1056 1064 1072 1080 1088 1096 1104 1112 1120 1128 1136 1144 1152 1160 1168 1176 1184 1192 1200 1208 1216 1224 1232 1240 1248 1256 1264 1272 1280 1288 1296 1304 1312 1320 1328 1336 1344 1352 1360 1368 1376 1384 1392 1400 1408 1416 1424 1432 1440 1448 1456 1464 1472 1480 1488 1496 1504 1512 1520 1528 1536 1544 1552 1560 1568 1576 1584 1592 1600 1608 1616 1624 1632 1640 1648 1656 1664 1672 1680 1688 1696 1704 1712 1720 1728 
        </DataArray>
        <DataArray type="UInt8" Name="types" format="ascii">
12 12 12 12 12 12 12 12 12 12 12 12 12 12 12 12 12 12 12 12 12 12 12 12 12 12 12 12 12 12 12 12 12 12 12 12 12 12 12 12 12 12 12 12 12 12 12 12 12 12 12 12 12 12 12 12 12 12 12 12 12 12 12 12 12 12 12 12 12 12 12 12 12 12 12 12 12 12 12 12 12 12 12 12 12 12 12 12 12 12 12 12 12 12 12 12 12 12 12 12 12 12 12 12 12 12 12 12 12 12 12 12 12 12 12 12 12 12 12 12 12 12 12 12 12 12 12 12 12 12 12 12 12 12 12 12 12 12 12 12 12 12 12 12 12 12 12 12 12 12 12 12 12 12 12 12 12 12 12 12 12 12 12 12 12 12 12 12 12 12 12 12 12 12 12 12 12 12 12 12 12 12 12 12 12 12 12 12 12 12 12 12 12 12 12 12 12 12 12 12 12 12 12 12 12 12 12 12 12 12 12 12 12 12 12 12 
        </DataArray>
      </Cells>
      <PointData>
        <DataArray type="Float32" Name="u">
          0 0 0 0 0 0 0 0 0 0 0 0 0 0 0 0 0 0 0 0 0 0 0 0 0 0 0 0 0 0 0 0 0 0 0 0 0 0 0 0 0 0 0 0 0 0 0 0 0 0 0 0 0 0 0 0 0 0.0173375 0.0334935 0.047367 0.0580124 0.0647045 0.066987 0 0.0334935 0.0647048 0.0915062 0.112072 0.125 0.129409 0 0.047367 0.0915062 0.129409 0.158493 0.176776 0.183012 0 0.0580124 0.112072 0.158493 0.194114 0.216506 0.224143 0 0.0647045 0.125 0.176776 0.216506 0.241481 0.25 0 0.066987 0.129409 0.183012 0.224143 0.25 0.258819 0 0 0 0 0 0 0 0 0.0334935 0.0647048 0.0915062 0.112072 0.125 0.129409 0 0.0647048 0.125 0.176777 0.216507 0.241482 0.25 0 0.0915062 0.176777 0.25 0.306186 0.341507 0.353554 0 0.112072 0.216507 0.306186 0.375 0.418259 0.433013 0 0.125 0.241482 0.341507 0.418259 0.466507 0.482964 0 0.129409 0.25 0.353554 0.433013 0.482964 0.5 0 0 0 0 0 0 0 0 0.047367 0.0915062 0.129409 0.158493 0.176776 0.183012 0 0.0915062 0.176777 0.25 0.306186 0.341507 0.353554 0 0.129409 0.25 0.353553 0.433012 0.482963 0.5 0 0.158493 0.306186 0.433012 0.53033 0.591506 0.612372 0 0.176776 0.341507 0.482963 0.591506 0.65974 0.683013 0 0.183012 0.353554 0.5 0.612372 0.683013 0.707107 0 0 0 0 0 0 0 0 0.0580124 0.112072 0.158493 0.194114 0.216506 0.224143 0 0.112072 0.216507 0.306186 0.375 0.418259 0.433013 0 0.158493 0.306186 0.433012 0.53033 0.591506 0.612372 0 0.194114 0.375 0.53033 0.649518 0.724444 0.749999 0 0.216506 0.418259 0.591506 0.724444 0.808013 0.836516 0 0.224143 0.433013 0.612372 0.749999 0.836516 0.866025 0 0 0 0 0 0 0 0 0.0647045 0.125 0.176776 0.216506 0.241481 0.25 0 0.125 0.241482 0.341507 0.418259 0.466507 0.482964 0 0.176776 0.341507 0.482963 0.591506 0.65974 0.683013 0 0.216506 0.418259 0.591506 0.724444 0.808013 0.836516 0 0.241481 0.466507 0.65974 0.808013 0.901222 0.933014 0 0.25 0.482964 0.683013 0.836516 0.933014 0.965926 0 0 0 0 0 0 0 0 0.066987 0.129409 0.183012 0.224143 0.25 0.258819 0 0.129409 0.25 0.353554 0.433013 0.482964 0.5 0 0.183012 0.353554 0.5 0.612372 0.683013 0.707107 0 0.224143 0.433013 0.612372 0.749999 0.836516 0.866025 0 0.25 0.482964 0.683013 0.836516 0.933014 0.965926 0 0.258819 0.5 0.707107 0.866025 0.965926 1 
        </DataArray>
      </PointData>
    </Piece>
    <Piece NumberOfPoints="343" NumberOfCells="216">
      <Points>
        <DataArray type="Float32" NumberOfComponents="3" format="ascii">
          0 0 0.5 
0.0833333 0 0.5 
0.166667 0 0.5 
0.25 0 0.5 
0.333333 0 0.5 
0.416667 0 0.5 
0.5 0 0.5 
0 0.0833333 0.5 
0.0833333 0.0833333 0.5 
0.166667 0.0833333 0.5 
0.25 0.0833333 0.5 
0.333333 0.0833333 0.5 
0.416667 0.0833333 0.5 
0.5 0.0833333 0.5 
0 0.166667 0.5 
0.0833333 0.166667 0.5 
0.166667 0.166667 0.5 
0.25 0.166667 0.5 
0.333333 0.166667 0.5 
0.416667 0.166667 0.5 
0.5 0.166667 0.5 
0 0.25 0.5 
0.0833333 0.25 0.5 
0.166667 0.25 0.5 
0.25 0.25 0.5 
0.333333 0.25 0.5 
0.416667 0.25 0.5 
0.5 0.25 0.5 
0 0.333333 0.5 
0.0833333 0.333333 0.5 
0.166667 0.333333 0.5 
0.25 0.333333 0.5 
0.333333 0.333333 0.5 
0.416667 0.333333 0.5 
0.5 0.333333 0.5 
0 0.416667 0.5 
0.0833333 0.416667 0.5 
0.166667 0.416667 0.5 
0.25 0.416667 0.5 
0.333333 0.416667 0.5 
0.416667 0.416667 0.5 
0.5 0.416667 0.5 
0 0.5 0.5 
0.0833333 0.5 0.5 
0.166667 0.5 0.5 
0.25 0.5 0.5 
0.333333 0.5 0.5 
0.416667 0.5 0.5 
0.5 0.5 0.5 
0 0 0.583333 
0.0833333 0 0.583333 
0.166667 0 0.583333 
0.25 0 0.583333 
0.333333 0 0.583333 
0.416667 0 0.583333 
0.5 0 0.583333 
0 0.0833333 0.583333 
0.0833333 0.0833333 0.583333 
0.166667 0.0833333 0.583333 
0.25 0.0833333 0.583333 
0.333333 0.0833333 0.583333 
0.416667 0.0833333 0.583333 
0.5 0.0833333 0.583333 
0 0.166667 0.583333 
0.0833333 0.166667 0.583333 
0.166667 0.166667 0.583333 
0.25 0.166667 0.583333 
0.333333 0.166667 0.583333 
0.416667 0.166667 0.583333 
0.5 0.166667 0.583333 
0 0.25 0.583333 
0.0833333 0.25 0.583333 
0.166667 0.25 0.583333 
0.25 0.25 0.583333 
0.333333 0.25 0.583333 
0.416667 0.25 0.583333 
0.5 0.25 0.583333 
0 0.333333 0.583333 
0.0833333 0.333333 0.583333 
0.166667 0.333333 0.583333 
0.25 0.333333 0.583333 
0.333333 0.333333 0.583333 
0.416667 0.333333 0.583333 
0.5 0.333333 0.583333 
0 0.416667 0.583333 
0.0833333 0.416667 0.583333 
0.166667 0.416667 0.583333 
0.25 0.416667 0.583333 
0.333333 0.416667 0.583333 
0.416667 0.416667 0.583333 
0.5 0.416667 0.583333 
0 0.5 0.583333 
0.0833333 0.5 0.583333 
0.166667 0.5 0.583333 
0.25 0.5 0.583333 
0.333333 0.5 0.583333 
0.416667 0.5 0.583333 
0.5 0.5 0.583333 
0 0 0.666667 
0.0833333 0 0.666667 
0.166667 0 0.666667 
0.25 0 0.666667 
0.333333 0 0.666667 
0.416667 0 0.666667 
0.5 0 0.666667 
0 0.0833333 0.666667 
0.0833333 0.0833333 0.666667 
0.166667 0.0833333 0.666667 
0.25 0.0833333 0.666667 
0.333333 0.0833333 0.666667 
0.416667 0.0833333 0.666667 
0.5 0.0833333 0.666667 
0 0.166667 0.666667 
0.0833333 0.166667 0.666667 
0.166667 0.166667 0.666667 
0.25 0.166667 0.666667 
0.333333 0.166667 0.666667 
0.416667 0.166667 0.666667 
0.5 0.166667 0.666667 
0 0.25 0.666667 
0.0833333 0.25 0.666667 
0.166667 0.25 0.666667 
0.25 0.25 0.666667 
0.333333 0.25 0.666667 
0.416667 0.25 0.666667 
0.5 0.25 0.666667 
0 0.333333 0.666667 
0.0833333 0.333333 0.666667 
0.166667 0.333333 0.666667 
0.25 0.333333 0.666667 
0.333333 0.333333 0.666667 
0.416667 0.333333 0.666667 
0.5 0.333333 0.666667 
0 0.416667 0.666667 
0.0833333 0.416667 0.666667 
0.166667 0.416667 0.666667 
0.25 0.416667 0.666667 
0.333333 0.416667 0.666667 
0.416667 0.416667 0.666667 
0.5 0.416667 0.666667 
0 0.5 0.666667 
0.0833333 0.5 0.666667 
0.166667 0.5 0.666667 
0.25 0.5 0.666667 
0.333333 0.5 0.666667 
0.416667 0.5 0.666667 
0.5 0.5 0.666667 
0 0 0.75 
0.0833333 0 0.75 
0.166667 0 0.75 
0.25 0 0.75 
0.333333 0 0.75 
0.416667 0 0.75 
0.5 0 0.75 
0 0.0833333 0.75 
0.0833333 0.0833333 0.75 
0.166667 0.0833333 0.75 
0.25 0.0833333 0.75 
0.333333 0.0833333 0.75 
0.416667 0.0833333 0.75 
0.5 0.0833333 0.75 
0 0.166667 0.75 
0.0833333 0.166667 0.75 
0.166667 0.166667 0.75 
0.25 0.166667 0.75 
0.333333 0.166667 0.75 
0.416667 0.166667 0.75 
0.5 0.166667 0.75 
0 0.25 0.75 
0.0833333 0.25 0.75 
0.166667 0.25 0.75 
0.25 0.25 0.75 
0.333333 0.25 0.75 
0.416667 0.25 0.75 
0.5 0.25 0.75 
0 0.333333 0.75 
0.0833333 0.333333 0.75 
0.166667 0.333333 0.75 
0.25 0.333333 0.75 
0.333333 0.333333 0.75 
0.416667 0.333333 0.75 
0.5 0.333333 0.75 
0 0.416667 0.75 
0.0833333 0.416667 0.75 
0.166667 0.416667 0.75 
0.25 0.416667 0.75 
0.333333 0.416667 0.75 
0.416667 0.416667 0.75 
0.5 0.416667 0.75 
0 0.5 0.75 
0.0833333 0.5 0.75 
0.166667 0.5 0.75 
0.25 0.5 0.75 
0.333333 0.5 0.75 
0.416667 0.5 0.75 
0.5 0.5 0.75 
0 0 0.833333 
0.0833333 0 0.833333 
0.166667 0 0.833333 
0.25 0 0.833333 
0.333333 0 0.833333 
0.416667 0 0.833333 
0.5 0 0.833333 
0 0.0833333 0.833333 
0.0833333 0.0833333 0.833333 
0.166667 0.0833333 0.833333 
0.25 0.0833333 0.833333 
0.333333 0.0833333 0.833333 
0.416667 0.0833333 0.833333 
0.5 0.0833333 0.833333 
0 0.166667 0.833333 
0.0833333 0.166667 0.833333 
0.166667 0.166667 0.833333 
0.25 0.166667 0.833333 
0.333333 0.166667 0.833333 
0.416667 0.166667 0.833333 
0.5 0.166667 0.833333 
0 0.25 0.833333 
0.0833333 0.25 0.833333 
0.166667 0.25 0.833333 
0.25 0.25 0.833333 
0.333333 0.25 0.833333 
0.416667 0.25 0.833333 
0.5 0.25 0.833333 
0 0.333333 0.833333 
0.0833333 0.333333 0.833333 
0.166667 0.333333 0.833333 
0.25 0.333333 0.833333 
0.333333 0.333333 0.833333 
0.416667 0.333333 0.833333 
0.5 0.333333 0.833333 
0 0.416667 0.833333 
0.0833333 0.416667 0.833333 
0.166667 0.416667 0.833333 
0.25 0.416667 0.833333 
0.333333 0.416667 0.833333 
0.416667 0.416667 0.833333 
0.5 0.416667 0.833333 
0 0.5 0.833333 
0.0833333 0.5 0.833333 
0.166667 0.5 0.833333 
0.25 0.5 0.833333 
0.333333 0.5 0.833333 
0.416667 0.5 0.833333 
0.5 0.5 0.833333 
0 0 0.916667 
0.0833333 0 0.916667 
0.166667 0 0.916667 
0.25 0 0.916667 
0.333333 0 0.916667 
0.416667 0 0.916667 
0.5 0 0.916667 
0 0.0833333 0.916667 
0.0833333 0.0833333 0.916667 
0.166667 0.0833333 0.916667 
0.25 0.0833333 0.916667 
0.333333 0.0833333 0.916667 
0.416667 0.0833333 0.916667 
0.5 0.0833333 0.916667 
0 0.166667 0.916667 
0.0833333 0.166667 0.916667 
0.166667 0.166667 0.916667 
0.25 0.166667 0.916667 
0.333333 0.166667 0.916667 
0.416667 0.166667 0.916667 
0.5 0.166667 0.916667 
0 0.25 0.916667 
0.0833333 0.25 0.916667 
0.166667 0.25 0.916667 
0.25 0.25 0.916667 
0.333333 0.25 0.916667 
0.416667 0.25 0.916667 
0.5 0.25 0.916667 
0 0.333333 0.916667 
0.0833333 0.333333 0.916667 
0.166667 0.333333 0.916667 
0.25 0.333333 0.916667 
0.333333 0.333333 0.916667 
0.416667 0.333333 0.916667 
0.5 0.333333 0.916667 
0 0.416667 0.916667 
0.0833333 0.416667 0.916667 
0.166667 0.416667 0.916667 
0.25 0.416667 0.916667 
0.333333 0.416667 0.916667 
0.416667 0.416667 0.916667 
0.5 0.416667 0.916667 
0 0.5 0.916667 
0.0833333 0.5 0.916667 
0.166667 0.5 0.916667 
0.25 0.5 0.916667 
0.333333 0.5 0.916667 
0.416667 0.5 0.916667 
0.5 0.5 0.916667 
0 0 1 
0.0833333 0 1 
0.166667 0 1 
0.25 0 1 
0.333333 0 1 
0.416667 0 1 
0.5 0 1 
0 0.0833333 1 
0.0833333 0.0833333 1 
0.166667 0.0833333 1 
0.25 0.0833333 1 
0.333333 0.0833333 1 
0.416667 0.0833333 1 
0.5 0.0833333 1 
0 0.166667 1 
0.0833333 0.166667 1 
0.166667 0.166667 1 
0.25 0.166667 1 
0.333333 0.166667 1 
0.416667 0.166667 1 
0.5 0.166667 1 
0 0.25 1 
0.0833333 0.25 1 
0.166667 0.25 1 
0.25 0.25 1 
0.333333 0.25 1 
0.416667 0.25 1 
0.5 0.25 1 
0 0.333333 1 
0.0833333 0.333333 1 
0.166667 0.333333 1 
0.25 0.333333 1 
0.333333 0.333333 1 
0.416667 0.333333 1 
0.5 0.333333 1 
0 0.416667 1 
0.0833333 0.416667 1 
0.166667 0.416667 1 
0.25 0.416667 1 
0.333333 0.416667 1 
0.416667 0.416667 1 
0.5 0.416667 1 
0 0.5 1 
0.0833333 0.5 1 
0.166667 0.5 1 
0.25 0.5 1 
0.333333 0.5 1 
0.416667 0.5 1 
0.5 0.5 1 

        </DataArray>
      </Points>
      <Cells>
        <DataArray type="Int32" Name="connectivity" format="ascii">
0 1 8 7 49 50 57 56 
49 50 57 56 98 99 106 105 
98 99 106 105 147 148 155 154 
147 148 155 154 196 197 204 203 
196 197 204 203 245 246 253 252 
245 246 253 252 294 295 302 301 
7 8 15 14 56 57 64 63 
56 57 64 63 105 106 113 112 
105 106 113 112 154 155 162 161 
154 155 162 161 203 204 211 210 
203 204 211 210 252 253 260 259 
252 253 260 259 301 302 309 308 
14 15 22 21 63 64 71 70 
63 64 71 70 112 113 120 119 
112 113 120 119 161 162 169 168 
161 162 169 168 210 211 218 217 
210 211 218 217 259 260 267 266 
259 260 267 266 308 309 316 315 
21 22 29 28 70 71 78 77 
70 71 78 77 119 120 127 126 
119 120 127 126 168 169 176 175 
168 169 176 175 217 218 225 224 
217 218 225 224 266 267 274 273 
266 267 274 273 315 316 323 322 
28 29 36 35 77 78 85 84 
77 78 85 84 126 127 134 133 
126 127 134 133 175 176 183 182 
175 176 183 182 224 225 232 231 
224 225 232 231 273 274 281 280 
273 274 281 280 322 323 330 329 
35 36 43 42 84 85 92 91 
84 85 92 91 133 134 141 140 
133 134 141 140 182 183 190 189 
182 183 190 189 231 232 239 238 
231 232 239 238 280 281 288 287 
280 281 288 287 329 330 337 336 
1 2 9 8 50 51 58 57 
50 51 58 57 99 100 107 106 
99 100 107 106 148 149 156 155 
148 149 156 155 197 198 205 204 
197 198 205 204 246 247 254 253 
246 247 254 253 295 296 303 302 
8 9 16 15 57 58 65 64 
57 58 65 64 106 107 114 113 
106 107 114 113 155 156 163 162 
155 156 163 162 204 205 212 211 
204 205 212 211 253 254 261 260 
253 254 261 260 302 303 310 309 
15 16 23 22 64 65 72 71 
64 65 72 71 113 114 121 120 
113 114 121 120 162 163 170 169 
162 163 170 169 211 212 219 218 
211 212 219 218 260 261 268 267 
260 261 268 267 309 310 317 316 
22 23 30 29 71 72 79 78 
71 72 79 78 120 121 128 127 
120 121 128 127 169 170 177 176 
169 170 177 176 218 219 226 225 
218 219 226 225 267 268 275 274 
267 268 275 274 316 317 324 323 
29 30 37 36 78 79 86 85 
78 79 86 85 127 128 135 134 
127 128 135 134 176 177 184 183 
176 177 184 183 225 226 233 232 
225 226 233 232 274 275 282 281 
274 275 282 281 323 324 331 330 
36 37 44 43 85 86 93 92 
85 86 93 92 134 135 142 141 
134 135 142 141 183 184 191 190 
183 184 191 190 232 233 240 239 
232 233 240 239 281 282 289 288 
281 282 289 288 330 331 338 337 
2 3 10 9 51 52 59 58 
51 52 59 58 100 101 108 107 
100 101 108 107 149 150 157 156 
149 150 157 156 198 199 206 205 
198 199 206 205 247 248 255 254 
247 248 255 254 296 297 304 303 
9 10 17 16 58 59 66 65 
58 59 66 65 107 108 115 114 
107 108 115 114 156 157 164 163 
156 157 164 163 205 206 213 212 
205 206 213 212 254 255 262 261 
254 255 262 261 303 304 311 310 
16 17 24 23 65 66 73 72 
65 66 73 72 114 115 122 121 
114 115 122 121 163 164 171 170 
163 164 171 170 212 213 220 219 
212 213 220 219 261 262 269 268 
261 262 269 268 310 311 318 317 
23 24 31 30 72 73 80 79 
72 73 80 79 121 122 129 128 
121 122 129 128 170 171 178 177 
170 171 178 177 219 220 227 226 
219 220 227 226 268 269 276 275 
268 269 276 275 317 318 325 324 
30 31 38 37 79 80 87 86 
79 80 87 86 128 129 136 135 
128 129 136 135 177 178 185 184 
177 178 185 184 226 227 234 233 
226 227 234 233 275 276 283 282 
275 276 283 282 324 325 332 331 
37 38 45 44 86 87 94 93 
86 87 94 93 135 136 143 142 
135 136 143 142 184 185 192 191 
184 185 192 191 233 234 241 240 
233 234 241 240 282 283 290 289 
282 283 290 289 331 332 339 338 
3 4 11 10 52 53 60 59 
52 53 60 59 101 102 109 108 
101 102 109 108 150 151 158 157 
150 151 158 157 199 200 207 206 
199 200 207 206 248 249 256 255 
248 249 256 255 297 298 305 304 
10 11 18 17 59 60 67 66 
59 60 67 66 108 109 116 115 
108 109 116 115 157 158 165 164 
157 158 165 164 206 207 214 213 
206 207 214 213 255 256 263 262 
255 256 263 262 304 305 312 311 
17 18 25 24 66 67 74 73 
66 67 74 73 115 116 123 122 
115 116 123 122 164 165 172 171 
164 165 172 171 213 214 221 220 
213 214 221 220 262 263 270 269 
262 263 270 269 311 312 319 318 