<?xml version="1.0"?>
<VTKFile type="UnstructuredGrid" version="0.1" byte_order="LittleEndian">
  <UnstructuredGrid>
    <Piece NumberOfPoints="16" NumberOfCells="9">
      <Points>
        <DataArray type="Float64" NumberOfComponents="3" format="ascii">
          0.00000000e+00 3.00000000e+00 0.00000000e+00 
8.33333313e-01 3.00000000e+00 0.00000000e+00 
1.66666663e+00 3.00000000e+00 0.00000000e+00 
2.50000000e+00 3.00000000e+00 0.00000000e+00 
0.00000000e+00 3.33333325e+00 0.00000000e+00 
8.33333313e-01 3.33333325e+00 0.00000000e+00 
1.66666663e+00 3.33333325e+00 0.00000000e+00 
2.50000000e+00 3.33333325e+00 0.00000000e+00 
0.00000000e+00 3.66666675e+00 0.00000000e+00 
8.33333313e-01 3.66666675e+00 0.00000000e+00 
1.66666663e+00 3.66666675e+00 0.00000000e+00 
2.50000000e+00 3.66666675e+00 0.00000000e+00 
0.00000000e+00 4.00000000e+00 0.00000000e+00 
8.33333313e-01 4.00000000e+00 0.00000000e+00 
1.66666663e+00 4.00000000e+00 0.00000000e+00 
2.50000000e+00 4.00000000e+00 0.00000000e+00 

        </DataArray>
      </Points>
      <Cells>
        <DataArray type="Int32" Name="connectivity" format="ascii">
0 1 5 4
4 5 9 8
8 9 13 12
1 2 6 5
5 6 10 9
9 10 14 13
2 3 7 6
6 7 11 10
10 11 15 14

        </DataArray>
        <DataArray type="Int32" Name="offsets" format="ascii">
4 8 12 16 20 24 28 32 36 
        </DataArray>
        <DataArray type="UInt8" Name="types" format="ascii">
9 9 9 9 9 9 9 9 9 
        </DataArray>
      </Cells>
      <PointData>
        <DataArray type="Float64" Name="u">
          0.00000000e+00 0.00000000e+00 0.00000000e+00 0.00000000e+00 8.88888889e+01 8.94710322e+01 8.95033969e+01 9.10965093e+01 1.55555556e+02 1.55369607e+02 1.56268515e+02 1.55825960e+02 2.00000000e+02 1.98978565e+02 2.00368908e+02 1.98747300e+02 
        </DataArray>
        <DataArray type="Float64" Name="v">
          0.00000000e+00 0.00000000e+00 0.00000000e+00 0.00000000e+00 0.00000000e+00 -2.43622896e-01 -4.20453787e-02 -1.71270318e+00 0.00000000e+00 -2.15236390e-01 -2.41153128e-01 -8.83345479e-01 0.00000000e+00 -3.04483960e-01 -2.40982167e-01 -8.36150837e-01 
        </DataArray>
        <DataArray type="Float64" Name="p">
          -1.44752891e+03 -2.86187277e+03 -4.27621662e+03 -5.69056047e+03 -1.45794224e+03 -2.85915286e+03 -4.26036347e+03 -5.66157408e+03 -1.46835557e+03 -2.85643294e+03 -4.24451032e+03 -5.63258769e+03 -1.47876890e+03 -2.85371303e+03 -4.22865717e+03 -5.60360130e+03 
        </DataArray>
      </PointData>
    </Piece>
    <Piece NumberOfPoints="16" NumberOfCells="9">
      <Points>
        <DataArray type="Float64" NumberOfComponents="3" format="ascii">
          0.00000000e+00 4.00000000e+00 0.00000000e+00 
8.33333313e-01 4.00000000e+00 0.00000000e+00 
1.66666663e+00 4.00000000e+00 0.00000000e+00 
2.50000000e+00 4.00000000e+00 0.00000000e+00 
0.00000000e+00 4.33333349e+00 0.00000000e+00 
8.33333313e-01 4.33333349e+00 0.00000000e+00 
1.66666663e+00 4.33333349e+00 0.00000000e+00 
2.50000000e+00 4.33333349e+00 0.00000000e+00 
0.00000000e+00 4.66666651e+00 0.00000000e+00 
8.33333313e-01 4.66666651e+00 0.00000000e+00 
1.66666663e+00 4.66666651e+00 0.00000000e+00 
2.50000000e+00 4.66666651e+00 0.00000000e+00 
0.00000000e+00 5.00000000e+00 0.00000000e+00 
8.33333313e-01 5.00000000e+00 0.00000000e+00 
1.66666663e+00 5.00000000e+00 0.00000000e+00 
2.50000000e+00 5.00000000e+00 0.00000000e+00 

        </DataArray>
      </Points>
      <Cells>
        <DataArray type="Int32" Name="connectivity" format="ascii">
0 1 5 4
4 5 9 8
8 9 13 12
1 2 6 5
5 6 10 9
9 10 14 13
2 3 7 6
6 7 11 10
10 11 15 14

        </DataArray>
        <DataArray type="Int32" Name="offsets" format="ascii">
4 8 12 16 20 24 28 32 36 
        </DataArray>
        <DataArray type="UInt8" Name="types" format="ascii">
9 9 9 9 9 9 9 9 9 
        </DataArray>
      </Cells>
      <PointData>
        <DataArray type="Float64" Name="u">
          2.00000000e+02 1.98978565e+02 2.00368908e+02 1.98747300e+02 2.22222222e+02 2.20951169e+02 2.22204631e+02 2.20579331e+02 2.22222222e+02 2.20951169e+02 2.22204631e+02 2.20579331e+02 2.00000000e+02 1.98978565e+02 2.00368908e+02 1.98747300e+02 
        </DataArray>
        <DataArray type="Float64" Name="v">
          0.00000000e+00 -3.04483960e-01 -2.40982167e-01 -8.36150837e-01 0.00000000e+00 -1.37754801e-02 -1.03327728e-01 3.64798739e-02 0.00000000e+00 1.37754801e-02 1.03327728e-01 -3.64798741e-02 0.00000000e+00 3.04483960e-01 2.40982167e-01 8.36150836e-01 
        </DataArray>
        <DataArray type="Float64" Name="p">
          -1.45742036e+03 -2.83958423e+03 -4.22174810e+03 -5.60391197e+03 -1.45742036e+03 -2.83958423e+03 -4.22174810e+03 -5.60391197e+03 -1.45742036e+03 -2.83958423e+03 -4.22174810e+03 -5.60391197e+03 -1.45742036e+03 -2.83958423e+03 -4.22174810e+03 -5.60391197e+03 
        </DataArray>
      </PointData>
    </Piece>
    <Piece NumberOfPoints="16" NumberOfCells="9">
      <Points>
        <DataArray type="Float64" NumberOfComponents="3" format="ascii">
          0.00000000e+00 5.00000000e+00 0.00000000e+00 
8.33333313e-01 5.00000000e+00 0.00000000e+00 
1.66666663e+00 5.00000000e+00 0.00000000e+00 
2.50000000e+00 5.00000000e+00 0.00000000e+00 
0.00000000e+00 5.33333349e+00 0.00000000e+00 
8.33333313e-01 5.33333349e+00 0.00000000e+00 
1.66666663e+00 5.33333349e+00 0.00000000e+00 
2.50000000e+00 5.33333349e+00 0.00000000e+00 
0.00000000e+00 5.66666651e+00 0.00000000e+00 
8.33333313e-01 5.66666651e+00 0.00000000e+00 
1.66666663e+00 5.66666651e+00 0.00000000e+00 
2.50000000e+00 5.66666651e+00 0.00000000e+00 
0.00000000e+00 6.00000000e+00 0.00000000e+00 
8.33333313e-01 6.00000000e+00 0.00000000e+00 
1.66666663e+00 6.00000000e+00 0.00000000e+00 
2.50000000e+00 6.00000000e+00 0.00000000e+00 

        </DataArray>
      </Points>
      <Cells>
        <DataArray type="Int32" Name="connectivity" format="ascii">
0 1 5 4
4 5 9 8
8 9 13 12
1 2 6 5
5 6 10 9
9 10 14 13
2 3 7 6
6 7 11 10
10 11 15 14

        </DataArray>
        <DataArray type="Int32" Name="offsets" format="ascii">
4 8 12 16 20 24 28 32 36 
        </DataArray>
        <DataArray type="UInt8" Name="types" format="ascii">
9 9 9 9 9 9 9 9 9 
        </DataArray>
      </Cells>
      <PointData>
        <DataArray type="Float64" Name="u">
          2.00000000e+02 1.98978565e+02 2.00368908e+02 1.98747300e+02 1.55555556e+02 1.55369607e+02 1.56268515e+02 1.55825960e+02 8.88888889e+01 8.94710322e+01 8.95033969e+01 9.10965093e+01 0.00000000e+00 0.00000000e+00 0.00000000e+00 0.00000000e+00 
        </DataArray>
        <DataArray type="Float64" Name="v">
          0.00000000e+00 3.04483960e-01 2.40982167e-01 8.36150836e-01 0.00000000e+00 2.15236390e-01 2.41153128e-01 8.83345479e-01 0.00000000e+00 2.43622896e-01 4.20453787e-02 1.71270318e+00 0.00000000e+00 0.00000000e+00 0.00000000e+00 0.00000000e+00 
        </DataArray>
        <DataArray type="Float64" Name="p">
          -1.47876890e+03 -2.85371303e+03 -4.22865717e+03 -5.60360130e+03 -1.46835557e+03 -2.85643294e+03 -4.24451032e+03 -5.63258769e+03 -1.45794224e+03 -2.85915286e+03 -4.26036347e+03 -5.66157408e+03 -1.44752891e+03 -2.86187277e+03 -4.27621662e+03 -5.69056047e+03 
        </DataArray>
      </PointData>
    </Piece>
    <Piece NumberOfPoints="16" NumberOfCells="9">
      <Points>
        <DataArray type="Float64" NumberOfComponents="3" format="ascii">
          2.50000000e+00 0.00000000e+00 0.00000000e+00 
3.33333325e+00 0.00000000e+00 0.00000000e+00 
4.16666651e+00 0.00000000e+00 0.00000000e+00 
5.00000000e+00 0.00000000e+00 0.00000000e+00 
2.50000000e+00 3.33333343e-01 0.00000000e+00 
3.33333325e+00 3.33333343e-01 0.00000000e+00 
4.16666651e+00 3.33333343e-01 0.00000000e+00 
5.00000000e+00 3.33333343e-01 0.00000000e+00 
2.50000000e+00 6.66666687e-01 0.00000000e+00 
3.33333325e+00 6.66666687e-01 0.00000000e+00 
4.16666651e+00 6.66666687e-01 0.00000000e+00 
5.00000000e+00 6.66666687e-01 0.00000000e+00 
2.50000000e+00 1.00000000e+00 0.00000000e+00 
3.33333325e+00 1.00000000e+00 0.00000000e+00 
4.16666651e+00 1.00000000e+00 0.00000000e+00 
5.00000000e+00 1.00000000e+00 0.00000000e+00 

        </DataArray>
      </Points>
      <Cells>
        <DataArray type="Int32" Name="connectivity" format="ascii">
0 1 5 4
4 5 9 8
8 9 13 12
1 2 6 5
5 6 10 9
9 10 14 13
2 3 7 6
6 7 11 10
10 11 15 14

        </DataArray>
        <DataArray type="Int32" Name="offsets" format="ascii">
4 8 12 16 20 24 28 32 36 
        </DataArray>
        <DataArray type="UInt8" Name="types" format="ascii">
9 9 9 9 9 9 9 9 9 
        </DataArray>
      </Cells>
      <PointData>
        <DataArray type="Float64" Name="u">
          0.00000000e+00 0.00000000e+00 0.00000000e+00 0.00000000e+00 0.00000000e+00 -3.04413752e+00 -5.11788289e+00 -9.19921950e+00 0.00000000e+00 -5.29283554e+00 -9.13614384e+00 -1.54560269e+01 0.00000000e+00 -6.77990238e+00 -1.15488415e+01 -1.84635725e+01 
        </DataArray>
        <DataArray type="Float64" Name="v">
          0.00000000e+00 0.00000000e+00 0.00000000e+00 0.00000000e+00 0.00000000e+00 8.92224404e-01 9.56604574e-01 6.54810689e-01 0.00000000e+00 2.63554115e+00 2.63111392e+00 1.74261837e+00 0.00000000e+00 5.76463717e+00 5.38944724e+00 3.50947146e+00 
        </DataArray>
        <DataArray type="Float64" Name="p">
          -5.26717327e+03 -5.21587141e+03 -5.16456955e+03 -5.11326769e+03 -5.25354258e+03 -5.20217676e+03 -5.15081094e+03 -5.09944512e+03 -5.23991190e+03 -5.18848211e+03 -5.13705233e+03 -5.08562254e+03 -5.22628121e+03 -5.17478746e+03 -5.12329372e+03 -5.07179997e+03 
        </DataArray>
      </PointData>
    </Piece>
    <Piece NumberOfPoints="16" NumberOfCells="9">
      <Points>
        <DataArray type="Float64" NumberOfComponents="3" format="ascii">
          2.50000000e+00 1.00000000e+00 0.00000000e+00 
3.33333325e+00 1.00000000e+00 0.00000000e+00 
4.16666651e+00 1.00000000e+00 0.00000000e+00 
5.00000000e+00 1.00000000e+00 0.00000000e+00 
2.50000000e+00 1.33333337e+00 0.00000000e+00 
3.33333325e+00 1.33333337e+00 0.00000000e+00 
4.16666651e+00 1.33333337e+00 0.00000000e+00 
5.00000000e+00 1.33333337e+00 0.00000000e+00 
2.50000000e+00 1.66666663e+00 0.00000000e+00 
3.33333325e+00 1.66666663e+00 0.00000000e+00 
4.16666651e+00 1.66666663e+00 0.00000000e+00 
5.00000000e+00 1.66666663e+00 0.00000000e+00 
2.50000000e+00 2.00000000e+00 0.00000000e+00 
3.33333325e+00 2.00000000e+00 0.00000000e+00 
4.16666651e+00 2.00000000e+00 0.00000000e+00 
5.00000000e+00 2.00000000e+00 0.00000000e+00 

        </DataArray>
      </Points>
      <Cells>
        <DataArray type="Int32" Name="connectivity" format="ascii">
0 1 5 4
4 5 9 8
8 9 13 12
1 2 6 5
5 6 10 9
9 10 14 13
2 3 7 6
6 7 11 10
10 11 15 14

        </DataArray>
        <DataArray type="Int32" Name="offsets" format="ascii">
4 8 12 16 20 24 28 32 36 
        </DataArray>
        <DataArray type="UInt8" Name="types" format="ascii">
9 9 9 9 9 9 9 9 9 
        </DataArray>
      </Cells>
      <PointData>
        <DataArray type="Float64" Name="u">
          0.00000000e+00 -6.77990238e+00 -1.15488415e+01 -1.84635725e+01 0.00000000e+00 -7.50242253e+00 -1.19984813e+01 -1.80268279e+01 0.00000000e+00 -7.21584334e+00 -1.00419418e+01 -1.35311142e+01 0.00000000e+00 -5.34136462e+00 -4.96449556e+00 -4.26609663e+00 
        </DataArray>
        <DataArray type="Float64" Name="v">
          0.00000000e+00 5.76463717e+00 5.38944724e+00 3.50947146e+00 0.00000000e+00 9.52984002e+00 8.18717885e+00 4.83575031e+00 0.00000000e+00 1.24227992e+01 1.00942114e+01 5.23568433e+00 0.00000000e+00 1.54140476e+01 1.11216207e+01 4.32611799e+00 
        </DataArray>
        <DataArray type="Float64" Name="p">
          -5.21046182e+03 -5.16848856e+03 -5.12651530e+03 -5.08454203e+03 -5.30502129e+03 -5.24738536e+03 -5.18974943e+03 -5.13211350e+03 -5.39958076e+03 -5.32628216e+03 -5.25298356e+03 -5.17968497e+03 -5.49414023e+03 -5.40517896e+03 -5.31621770e+03 -5.22725643e+03 
        </DataArray>
      </PointData>
    </Piece>
    <Piece NumberOfPoints="16" NumberOfCells="9">
      <Points>
        <DataArray type="Float64" NumberOfComponents="3" format="ascii">
          2.50000000e+00 2.00000000e+00 0.00000000e+00 
3.33333325e+00 2.00000000e+00 0.00000000e+00 
4.16666651e+00 2.00000000e+00 0.00000000e+00 
5.00000000e+00 2.00000000e+00 0.00000000e+00 
2.50000000e+00 2.33333325e+00 0.00000000e+00 
3.33333325e+00 2.33333325e+00 0.00000000e+00 
4.16666651e+00 2.33333325e+00 0.00000000e+00 
5.00000000e+00 2.33333325e+00 0.00000000e+00 
2.50000000e+00 2.66666675e+00 0.00000000e+00 
3.33333325e+00 2.66666675e+00 0.00000000e+00 
4.16666651e+00 2.66666675e+00 0.00000000e+00 
5.00000000e+00 2.66666675e+00 0.00000000e+00 
2.50000000e+00 3.00000000e+00 0.00000000e+00 
3.33333325e+00 3.00000000e+00 0.00000000e+00 
4.16666651e+00 3.00000000e+00 0.00000000e+00 
5.00000000e+00 3.00000000e+00 0.00000000e+00 

        </DataArray>
      </Points>
      <Cells>
        <DataArray type="Int32" Name="connectivity" format="ascii">
0 1 5 4
4 5 9 8
8 9 13 12
1 2 6 5
5 6 10 9
9 10 14 13
2 3 7 6
6 7 11 10
10 11 15 14

        </DataArray>
        <DataArray type="Int32" Name="offsets" format="ascii">
4 8 12 16 20 24 28 32 36 
        </DataArray>
        <DataArray type="UInt8" Name="types" format="ascii">
9 9 9 9 9 9 9 9 9 
        </DataArray>
      </Cells>
      <PointData>
        <DataArray type="Float64" Name="u">
          0.00000000e+00 -5.34136462e+00 -4.96449556e+00 -4.26609663e+00 0.00000000e+00 -6.29478337e-01 3.92024797e+00 1.21060068e+01 0.00000000e+00 1.25094159e+01 2.09317247e+01 3.57705091e+01 0.00000000e+00 4.66651876e+01 5.22226036e+01 6.93613491e+01 
        </DataArray>
        <DataArray type="Float64" Name="v">
          0.00000000e+00 1.54140476e+01 1.11216207e+01 4.32611799e+00 0.00000000e+00 1.68541626e+01 9.11164990e+00 1.11532213e+00 0.00000000e+00 1.33336188e+01 6.12980845e+00 -1.51228134e+00 0.00000000e+00 2.04151349e+00 -7.57537305e-01 -3.40872581e+00 
        </DataArray>
        <DataArray type="Float64" Name="p">
          -5.45621639e+03 -5.41591753e+03 -5.37561867e+03 -5.33531982e+03 -5.79603210e+03 -5.58420012e+03 -5.37236813e+03 -5.16053614e+03 -6.13584782e+03 -5.75248270e+03 -5.36911758e+03 -4.98575247e+03 -6.47566353e+03 -5.92076529e+03 -5.36586704e+03 -4.81096879e+03 
        </DataArray>
      </PointData>
    </Piece>
    <Piece NumberOfPoints="16" NumberOfCells="9">
      <Points>
        <DataArray type="Float64" NumberOfComponents="3" format="ascii">
          2.50000000e+00 3.00000000e+00 0.00000000e+00 
3.33333325e+00 3.00000000e+00 0.00000000e+00 
4.16666651e+00 3.00000000e+00 0.00000000e+00 
5.00000000e+00 3.00000000e+00 0.00000000e+00 
2.50000000e+00 3.33333325e+00 0.00000000e+00 
3.33333325e+00 3.33333325e+00 0.00000000e+00 
4.16666651e+00 3.33333325e+00 0.00000000e+00 
5.00000000e+00 3.33333325e+00 0.00000000e+00 
2.50000000e+00 3.66666675e+00 0.00000000e+00 
3.33333325e+00 3.66666675e+00 0.00000000e+00 
4.16666651e+00 3.66666675e+00 0.00000000e+00 
5.00000000e+00 3.66666675e+00 0.00000000e+00 
2.50000000e+00 4.00000000e+00 0.00000000e+00 
3.33333325e+00 4.00000000e+00 0.00000000e+00 
4.16666651e+00 4.00000000e+00 0.00000000e+00 
5.00000000e+00 4.00000000e+00 0.00000000e+00 

        </DataArray>
      </Points>
      <Cells>
        <DataArray type="Int32" Name="connectivity" format="ascii">
0 1 5 4
4 5 9 8
8 9 13 12
1 2 6 5
5 6 10 9
9 10 14 13
2 3 7 6
6 7 11 10
10 11 15 14

        </DataArray>
        <DataArray type="Int32" Name="offsets" format="ascii">
4 8 12 16 20 24 28 32 36 
        </DataArray>
        <DataArray type="UInt8" Name="types" format="ascii">
9 9 9 9 9 9 9 9 9 
        </DataArray>
      </Cells>
      <PointData>
        <DataArray type="Float64" Name="u">
          0.00000000e+00 4.66651876e+01 5.22226036e+01 6.93613491e+01 9.10965093e+01 9.60623437e+01 1.00630533e+02 1.06248804e+02 1.55825960e+02 1.51218938e+02 1.51054834e+02 1.48287943e+02 1.98747300e+02 1.91557672e+02 1.90155682e+02 1.82335129e+02 
        </DataArray>
        <DataArray type="Float64" Name="v">
          0.00000000e+00 2.04151349e+00 -7.57537305e-01 -3.40872581e+00 -1.71270318e+00 -6.67942458e+00 -5.13003984e+00 -2.44830750e+00 -8.83345479e-01 -6.98270190e+00 -6.77084843e+00 -3.02667541e+00 -8.36150837e-01 -4.55764453e+00 -4.29063190e+00 -2.49262263e+00 
        </DataArray>
        <DataArray type="Float64" Name="p">
          -6.53973521e+03 -5.89167747e+03 -5.24361973e+03 -4.59556199e+03 -6.03851453e+03 -5.65059795e+03 -5.26268136e+03 -4.87476478e+03 -5.53729386e+03 -5.40951842e+03 -5.28174299e+03 -5.15396756e+03 -5.03607318e+03 -5.16843890e+03 -5.30080462e+03 -5.43317035e+03 
        </DataArray>
      </PointData>
    </Piece>
    <Piece NumberOfPoints="16" NumberOfCells="9">
      <Points>
        <DataArray type="Float64" NumberOfComponents="3" format="ascii">
          2.50000000e+00 4.00000000e+00 0.00000000e+00 
3.33333325e+00 4.00000000e+00 0.00000000e+00 
4.16666651e+00 4.00000000e+00 0.00000000e+00 
5.00000000e+00 4.00000000e+00 0.00000000e+00 
2.50000000e+00 4.33333349e+00 0.00000000e+00 
3.33333325e+00 4.33333349e+00 0.00000000e+00 
4.16666651e+00 4.33333349e+00 0.00000000e+00 
5.00000000e+00 4.33333349e+00 0.00000000e+00 
2.50000000e+00 4.66666651e+00 0.00000000e+00 
3.33333325e+00 4.66666651e+00 0.00000000e+00 
4.16666651e+00 4.66666651e+00 0.00000000e+00 
5.00000000e+00 4.66666651e+00 0.00000000e+00 
2.50000000e+00 5.00000000e+00 0.00000000e+00 
3.33333325e+00 5.00000000e+00 0.00000000e+00 
4.16666651e+00 5.00000000e+00 0.00000000e+00 
5.00000000e+00 5.00000000e+00 0.00000000e+00 

        </DataArray>
      </Points>
      <Cells>
        <DataArray type="Int32" Name="connectivity" format="ascii">
0 1 5 4
4 5 9 8
8 9 13 12
1 2 6 5
5 6 10 9
9 10 14 13
2 3 7 6
6 7 11 10
10 11 15 14

        </DataArray>
        <DataArray type="Int32" Name="offsets" format="ascii">
4 8 12 16 20 24 28 32 36 
        </DataArray>
        <DataArray type="UInt8" Name="types" format="ascii">
9 9 9 9 9 9 9 9 9 
        </DataArray>
      </Cells>
      <PointData>
        <DataArray type="Float64" Name="u">
          1.98747300e+02 1.91557672e+02 1.90155682e+02 1.82335129e+02 2.20579331e+02 2.12429430e+02 2.09910671e+02 2.01155386e+02 2.20579331e+02 2.12429430e+02 2.09910671e+02 2.01155386e+02 1.98747300e+02 1.91557672e+02 1.90155682e+02 1.82335129e+02 
        </DataArray>
        <DataArray type="Float64" Name="v">
          -8.36150837e-01 -4.55764453e+00 -4.29063190e+00 -2.49262263e+00 3.64798739e-02 -5.57501016e-01 -1.27686603e+00 -1.18190540e+00 -3.64798741e-02 5.57501016e-01 1.27686603e+00 1.18190540e+00 8.36150836e-01 4.55764452e+00 4.29063190e+00 2.49262263e+00 
        </DataArray>
        <DataArray type="Float64" Name="p">
          -4.86754824e+03 -5.08879009e+03 -5.31003194e+03 -5.53127379e+03 -4.86754824e+03 -5.08879009e+03 -5.31003194e+03 -5.53127379e+03 -4.86754824e+03 -5.08879009e+03 -5.31003194e+03 -5.53127379e+03 -4.86754824e+03 -5.08879009e+03 -5.31003194e+03 -5.53127379e+03 
        </DataArray>
      </PointData>
    </Piece>
    <Piece NumberOfPoints="16" NumberOfCells="9">
      <Points>
        <DataArray type="Float64" NumberOfComponents="3" format="ascii">
          2.50000000e+00 5.00000000e+00 0.00000000e+00 
3.33333325e+00 5.00000000e+00 0.00000000e+00 
4.16666651e+00 5.00000000e+00 0.00000000e+00 
5.00000000e+00 5.00000000e+00 0.00000000e+00 
2.50000000e+00 5.33333349e+00 0.00000000e+00 
3.33333325e+00 5.33333349e+00 0.00000000e+00 
4.16666651e+00 5.33333349e+00 0.00000000e+00 
5.00000000e+00 5.33333349e+00 0.00000000e+00 
2.50000000e+00 5.66666651e+00 0.00000000e+00 
3.33333325e+00 5.66666651e+00 0.00000000e+00 
4.16666651e+00 5.66666651e+00 0.00000000e+00 
5.00000000e+00 5.66666651e+00 0.00000000e+00 
2.50000000e+00 6.00000000e+00 0.00000000e+00 
3.33333325e+00 6.00000000e+00 0.00000000e+00 
4.16666651e+00 6.00000000e+00 0.00000000e+00 
5.00000000e+00 6.00000000e+00 0.00000000e+00 

        </DataArray>
      </Points>
      <Cells>
        <DataArray type="Int32" Name="connectivity" format="ascii">
0 1 5 4
4 5 9 8
8 9 13 12
1 2 6 5
5 6 10 9
9 10 14 13
2 3 7 6
6 7 11 10
10 11 15 14

        </DataArray>
        <DataArray type="Int32" Name="offsets" format="ascii">
4 8 12 16 20 24 28 32 36 
        </DataArray>
        <DataArray type="UInt8" Name="types" format="ascii">
9 9 9 9 9 9 9 9 9 
        </DataArray>
      </Cells>
      <PointData>
        <DataArray type="Float64" Name="u">
          1.98747300e+02 1.91557672e+02 1.90155682e+02 1.82335129e+02 1.55825960e+02 1.51218938e+02 1.51054834e+02 1.48287943e+02 9.10965093e+01 9.60623437e+01 1.00630533e+02 1.06248804e+02 0.00000000e+00 4.66651876e+01 5.22226036e+01 6.93613491e+01 
        </DataArray>
        <DataArray type="Float64" Name="v">
          8.36150836e-01 4.55764452e+00 4.29063190e+00 2.49262263e+00 8.83345479e-01 6.98270190e+00 6.77084843e+00 3.02667541e+00 1.71270318e+00 6.67942458e+00 5.13003984e+00 2.44830750e+00 0.00000000e+00 -2.04151349e+00 7.57537305e-01 3.40872581e+00 
        </DataArray>
        <DataArray type="Float64" Name="p">
          -5.03607318e+03 -5.16843890e+03 -5.30080462e+03 -5.43317035e+03 -5.53729386e+03 -5.40951842e+03 -5.28174299e+03 -5.15396756e+03 -6.03851453e+03 -5.65059795e+03 -5.26268136e+03 -4.87476478e+03 -6.53973521e+03 -5.89167747e+03 -5.24361973e+03 -4.59556199e+03 
        </DataArray>
      </PointData>
    </Piece>
    <Piece NumberOfPoints="16" NumberOfCells="9">
      <Points>
        <DataArray type="Float64" NumberOfComponents="3" format="ascii">
          2.50000000e+00 6.00000000e+00 0.00000000e+00 
3.33333325e+00 6.00000000e+00 0.00000000e+00 
4.16666651e+00 6.00000000e+00 0.00000000e+00 
5.00000000e+00 6.00000000e+00 0.00000000e+00 
2.50000000e+00 6.33333349e+00 0.00000000e+00 
3.33333325e+00 6.33333349e+00 0.00000000e+00 
4.16666651e+00 6.33333349e+00 0.00000000e+00 
5.00000000e+00 6.33333349e+00 0.00000000e+00 
2.50000000e+00 6.66666651e+00 0.00000000e+00 
3.33333325e+00 6.66666651e+00 0.00000000e+00 
4.16666651e+00 6.66666651e+00 0.00000000e+00 
5.00000000e+00 6.66666651e+00 0.00000000e+00 
2.50000000e+00 7.00000000e+00 0.00000000e+00 
3.33333325e+00 7.00000000e+00 0.00000000e+00 
4.16666651e+00 7.00000000e+00 0.00000000e+00 
5.00000000e+00 7.00000000e+00 0.00000000e+00 

        </DataArray>
      </Points>
      <Cells>
        <DataArray type="Int32" Name="connectivity" format="ascii">
0 1 5 4
4 5 9 8
8 9 13 12
1 2 6 5
5 6 10 9
9 10 14 13
2 3 7 6
6 7 11 10
10 11 15 14

        </DataArray>
        <DataArray type="Int32" Name="offsets" format="ascii">
4 8 12 16 20 24 28 32 36 
        </DataArray>
        <DataArray type="UInt8" Name="types" format="ascii">
9 9 9 9 9 9 9 9 9 
        </DataArray>
      </Cells>
      <PointData>
        <DataArray type="Float64" Name="u">
          0.00000000e+00 4.66651876e+01 5.22226036e+01 6.93613491e+01 0.00000000e+00 1.25094159e+01 2.09317247e+01 3.57705091e+01 0.00000000e+00 -6.29478337e-01 3.92024797e+00 1.21060068e+01 0.00000000e+00 -5.34136462e+00 -4.96449556e+00 -4.26609663e+00 
        </DataArray>
        <DataArray type="Float64" Name="v">
          0.00000000e+00 -2.04151349e+00 7.57537305e-01 3.40872581e+00 0.00000000e+00 -1.33336188e+01 -6.12980845e+00 1.51228134e+00 0.00000000e+00 -1.68541626e+01 -9.11164990e+00 -1.11532213e+00 0.00000000e+00 -1.54140476e+01 -1.11216207e+01 -4.32611799e+00 
        </DataArray>
        <DataArray type="Float64" Name="p">
          -6.47566353e+03 -5.92076529e+03 -5.36586704e+03 -4.81096879e+03 -6.13584782e+03 -5.75248270e+03 -5.36911758e+03 -4.98575247e+03 -5.79603210e+03 -5.58420012e+03 -5.37236813e+03 -5.16053614e+03 -5.45621639e+03 -5.41591753e+03 -5.37561867e+03 -5.33531982e+03 
        </DataArray>
      </PointData>
    </Piece>
    <Piece NumberOfPoints="16" NumberOfCells="9">
      <Points>
        <DataArray type="Float64" NumberOfComponents="3" format="ascii">
          2.50000000e+00 7.00000000e+00 0.00000000e+00 
3.33333325e+00 7.00000000e+00 0.00000000e+00 
4.16666651e+00 7.00000000e+00 0.00000000e+00 
5.00000000e+00 7.00000000e+00 0.00000000e+00 
2.50000000e+00 7.33333349e+00 0.00000000e+00 
3.33333325e+00 7.33333349e+00 0.00000000e+00 
4.16666651e+00 7.33333349e+00 0.00000000e+00 
5.00000000e+00 7.33333349e+00 0.00000000e+00 
2.50000000e+00 7.66666651e+00 0.00000000e+00 
3.33333325e+00 7.66666651e+00 0.00000000e+00 
4.16666651e+00 7.66666651e+00 0.00000000e+00 
5.00000000e+00 7.66666651e+00 0.00000000e+00 
2.50000000e+00 8.00000000e+00 0.00000000e+00 
3.33333325e+00 8.00000000e+00 0.00000000e+00 
4.16666651e+00 8.00000000e+00 0.00000000e+00 
5.00000000e+00 8.00000000e+00 0.00000000e+00 

        </DataArray>
      </Points>
      <Cells>
        <DataArray type="Int32" Name="connectivity" format="ascii">
0 1 5 4
4 5 9 8
8 9 13 12
1 2 6 5
5 6 10 9
9 10 14 13
2 3 7 6
6 7 11 10
10 11 15 14

        </DataArray>
        <DataArray type="Int32" Name="offsets" format="ascii">
4 8 12 16 20 24 28 32 36 
        </DataArray>
        <DataArray type="UInt8" Name="types" format="ascii">
9 9 9 9 9 9 9 9 9 
        </DataArray>
      </Cells>
      <PointData>
        <DataArray type="Float64" Name="u">
          0.00000000e+00 -5.34136462e+00 -4.96449556e+00 -4.26609663e+00 0.00000000e+00 -7.21584334e+00 -1.00419418e+01 -1.35311142e+01 0.00000000e+00 -7.50242253e+00 -1.19984813e+01 -1.80268279e+01 0.00000000e+00 -6.77990238e+00 -1.15488415e+01 -1.84635725e+01 
        </DataArray>
        <DataArray type="Float64" Name="v">
          0.00000000e+00 -1.54140476e+01 -1.11216207e+01 -4.32611799e+00 0.00000000e+00 -1.24227992e+01 -1.00942114e+01 -5.23568433e+00 0.00000000e+00 -9.52984002e+00 -8.18717885e+00 -4.83575031e+00 0.00000000e+00 -5.76463717e+00 -5.38944724e+00 -3.50947146e+00 
        </DataArray>
        <DataArray type="Float64" Name="p">
          -5.49414023e+03 -5.40517896e+03 -5.31621770e+03 -5.22725643e+03 -5.39958076e+03 -5.32628216e+03 -5.25298356e+03 -5.17968497e+03 -5.30502129e+03 -5.24738536e+03 -5.18974943e+03 -5.13211350e+03 -5.21046182e+03 -5.16848856e+03 -5.12651530e+03 -5.08454203e+03 
        </DataArray>
      </PointData>
    </Piece>
    <Piece NumberOfPoints="16" NumberOfCells="9">
      <Points>
        <DataArray type="Float64" NumberOfComponents="3" format="ascii">
          2.50000000e+00 8.00000000e+00 0.00000000e+00 
3.33333325e+00 8.00000000e+00 0.00000000e+00 
4.16666651e+00 8.00000000e+00 0.00000000e+00 
5.00000000e+00 8.00000000e+00 0.00000000e+00 
2.50000000e+00 8.33333302e+00 0.00000000e+00 
3.33333325e+00 8.33333302e+00 0.00000000e+00 
4.16666651e+00 8.33333302e+00 0.00000000e+00 
5.00000000e+00 8.33333302e+00 0.00000000e+00 
2.50000000e+00 8.66666698e+00 0.00000000e+00 
3.33333325e+00 8.66666698e+00 0.00000000e+00 
4.16666651e+00 8.66666698e+00 0.00000000e+00 
5.00000000e+00 8.66666698e+00 0.00000000e+00 
2.50000000e+00 9.00000000e+00 0.00000000e+00 
3.33333325e+00 9.00000000e+00 0.00000000e+00 
4.16666651e+00 9.00000000e+00 0.00000000e+00 
5.00000000e+00 9.00000000e+00 0.00000000e+00 

        </DataArray>
      </Points>
      <Cells>
        <DataArray type="Int32" Name="connectivity" format="ascii">
0 1 5 4
4 5 9 8
8 9 13 12
1 2 6 5
5 6 10 9
9 10 14 13
2 3 7 6
6 7 11 10
10 11 15 14

        </DataArray>
        <DataArray type="Int32" Name="offsets" format="ascii">
4 8 12 16 20 24 28 32 36 
        </DataArray>
        <DataArray type="UInt8" Name="types" format="ascii">
9 9 9 9 9 9 9 9 9 
        </DataArray>
      </Cells>
      <PointData>
        <DataArray type="Float64" Name="u">
          0.00000000e+00 -6.77990238e+00 -1.15488415e+01 -1.84635725e+01 0.00000000e+00 -5.29283554e+00 -9.13614384e+00 -1.54560269e+01 0.00000000e+00 -3.04413752e+00 -5.11788289e+00 -9.19921950e+00 0.00000000e+00 0.00000000e+00 0.00000000e+00 0.00000000e+00 
        </DataArray>
        <DataArray type="Float64" Name="v">
          0.00000000e+00 -5.76463717e+00 -5.38944724e+00 -3.50947146e+00 0.00000000e+00 -2.63554115e+00 -2.63111392e+00 -1.74261837e+00 0.00000000e+00 -8.92224404e-01 -9.56604574e-01 -6.54810689e-01 0.00000000e+00 0.00000000e+00 0.00000000e+00 0.00000000e+00 
        </DataArray>
        <DataArray type="Float64" Name="p">
          -5.22628121e+03 -5.17478746e+03 -5.12329372e+03 -5.07179997e+03 -5.23991190e+03 -5.18848211e+03 -5.13705233e+03 -5.08562254e+03 -5.25354258e+03 -5.20217676e+03 -5.15081094e+03 -5.09944512e+03 -5.26717327e+03 -5.21587141e+03 -5.16456955e+03 -5.11326769e+03 
        </DataArray>
      </PointData>
    </Piece>
    <Piece NumberOfPoints="16" NumberOfCells="9">
      <Points>
        <DataArray type="Float64" NumberOfComponents="3" format="ascii">
          5.00000000e+00 0.00000000e+00 0.00000000e+00 
5.83333349e+00 0.00000000e+00 0.00000000e+00 
6.66666651e+00 0.00000000e+00 0.00000000e+00 
7.50000000e+00 0.00000000e+00 0.00000000e+00 
5.00000000e+00 3.33333343e-01 0.00000000e+00 
5.83333349e+00 3.33333343e-01 0.00000000e+00 
6.66666651e+00 3.33333343e-01 0.00000000e+00 
7.50000000e+00 3.33333343e-01 0.00000000e+00 
5.00000000e+00 6.66666687e-01 0.00000000e+00 
5.83333349e+00 6.66666687e-01 0.00000000e+00 
6.66666651e+00 6.66666687e-01 0.00000000e+00 
7.50000000e+00 6.66666687e-01 0.00000000e+00 
5.00000000e+00 1.00000000e+00 0.00000000e+00 
5.83333349e+00 1.00000000e+00 0.00000000e+00 
6.66666651e+00 1.00000000e+00 0.00000000e+00 
7.50000000e+00 1.00000000e+00 0.00000000e+00 

        </DataArray>
      </Points>
      <Cells>
        <DataArray type="Int32" Name="connectivity" format="ascii">
0 1 5 4
4 5 9 8
8 9 13 12
1 2 6 5
5 6 10 9
9 10 14 13
2 3 7 6
6 7 11 10
10 11 15 14

        </DataArray>
        <DataArray type="Int32" Name="offsets" format="ascii">
4 8 12 16 20 24 28 32 36 
        </DataArray>
        <DataArray type="UInt8" Name="types" format="ascii">
9 9 9 9 9 9 9 9 9 
        </DataArray>
      </Cells>
      <PointData>
        <DataArray type="Float64" Name="u">