<?xml version="1.0"?>
<VTKFile type="UnstructuredGrid" version="0.1" byte_order="LittleEndian">
  <UnstructuredGrid>
    <Piece NumberOfPoints="16" NumberOfCells="9">
      <Points>
        <DataArray type="Float64" NumberOfComponents="3" format="ascii">
          0.00000000e+00 3.00000000e+00 0.00000000e+00 
8.33333313e-01 3.00000000e+00 0.00000000e+00 
1.66666663e+00 3.00000000e+00 0.00000000e+00 
2.50000000e+00 3.00000000e+00 0.00000000e+00 
0.00000000e+00 3.33333325e+00 0.00000000e+00 
8.33333313e-01 3.33333325e+00 0.00000000e+00 
1.66666663e+00 3.33333325e+00 0.00000000e+00 
2.50000000e+00 3.33333325e+00 0.00000000e+00 
0.00000000e+00 3.66666675e+00 0.00000000e+00 
8.33333313e-01 3.66666675e+00 0.00000000e+00 
1.66666663e+00 3.66666675e+00 0.00000000e+00 
2.50000000e+00 3.66666675e+00 0.00000000e+00 
0.00000000e+00 4.00000000e+00 0.00000000e+00 
8.33333313e-01 4.00000000e+00 0.00000000e+00 
1.66666663e+00 4.00000000e+00 0.00000000e+00 
2.50000000e+00 4.00000000e+00 0.00000000e+00 

        </DataArray>
      </Points>
      <Cells>
        <DataArray type="Int32" Name="connectivity" format="ascii">
0 1 5 4
4 5 9 8
8 9 13 12
1 2 6 5
5 6 10 9
9 10 14 13
2 3 7 6
6 7 11 10
10 11 15 14

        </DataArray>
        <DataArray type="Int32" Name="offsets" format="ascii">
4 8 12 16 20 24 28 32 36 
        </DataArray>
        <DataArray type="UInt8" Name="types" format="ascii">
9 9 9 9 9 9 9 9 9 
        </DataArray>
      </Cells>
      <PointData>
        <DataArray type="Float64" Name="u">
          0.00000000e+00 0.00000000e+00 0.00000000e+00 0.00000000e+00 8.88888889e+01 8.70291789e+01 8.74340394e+01 8.20933428e+01 1.55555556e+02 1.53096057e+02 1.53944608e+02 1.48462319e+02 2.00000000e+02 1.97612921e+02 1.98578042e+02 1.94058969e+02 
        </DataArray>
        <DataArray type="Float64" Name="v">
          0.00000000e+00 0.00000000e+00 0.00000000e+00 0.00000000e+00 0.00000000e+00 5.82838780e-01 1.44940169e+00 1.12197876e+00 0.00000000e+00 5.73657424e-01 1.62005499e+00 2.63372801e+00 0.00000000e+00 1.54127234e+00 3.26686052e+00 4.61855252e+00 
        </DataArray>
        <DataArray type="Float64" Name="p">
          -1.85950282e+03 -2.99000666e+03 -4.12051050e+03 -5.25101434e+03 -1.89361314e+03 -3.02795872e+03 -4.16230431e+03 -5.29664989e+03 -1.92772345e+03 -3.06591078e+03 -4.20409812e+03 -5.34228545e+03 -1.96183376e+03 -3.10386284e+03 -4.24589192e+03 -5.38792100e+03 
        </DataArray>
      </PointData>
    </Piece>
    <Piece NumberOfPoints="16" NumberOfCells="9">
      <Points>
        <DataArray type="Float64" NumberOfComponents="3" format="ascii">
          0.00000000e+00 4.00000000e+00 0.00000000e+00 
8.33333313e-01 4.00000000e+00 0.00000000e+00 
1.66666663e+00 4.00000000e+00 0.00000000e+00 
2.50000000e+00 4.00000000e+00 0.00000000e+00 
0.00000000e+00 4.33333349e+00 0.00000000e+00 
8.33333313e-01 4.33333349e+00 0.00000000e+00 
1.66666663e+00 4.33333349e+00 0.00000000e+00 
2.50000000e+00 4.33333349e+00 0.00000000e+00 
0.00000000e+00 4.66666651e+00 0.00000000e+00 
8.33333313e-01 4.66666651e+00 0.00000000e+00 
1.66666663e+00 4.66666651e+00 0.00000000e+00 
2.50000000e+00 4.66666651e+00 0.00000000e+00 
0.00000000e+00 5.00000000e+00 0.00000000e+00 
8.33333313e-01 5.00000000e+00 0.00000000e+00 
1.66666663e+00 5.00000000e+00 0.00000000e+00 
2.50000000e+00 5.00000000e+00 0.00000000e+00 

        </DataArray>
      </Points>
      <Cells>
        <DataArray type="Int32" Name="connectivity" format="ascii">
0 1 5 4
4 5 9 8
8 9 13 12
1 2 6 5
5 6 10 9
9 10 14 13
2 3 7 6
6 7 11 10
10 11 15 14

        </DataArray>
        <DataArray type="Int32" Name="offsets" format="ascii">
4 8 12 16 20 24 28 32 36 
        </DataArray>
        <DataArray type="UInt8" Name="types" format="ascii">
9 9 9 9 9 9 9 9 9 
        </DataArray>
      </Cells>
      <PointData>
        <DataArray type="Float64" Name="u">
          2.00000000e+02 1.97612921e+02 1.98578042e+02 1.94058969e+02 2.22222222e+02 2.20637832e+02 2.21495780e+02 2.19074096e+02 2.22222222e+02 2.21743702e+02 2.22726078e+02 2.22471483e+02 2.00000000e+02 2.00683638e+02 2.01849261e+02 2.03818956e+02 
        </DataArray>
        <DataArray type="Float64" Name="v">
          0.00000000e+00 1.54127234e+00 3.26686052e+00 4.61855252e+00 0.00000000e+00 2.18269949e+00 3.99508627e+00 5.97173688e+00 0.00000000e+00 2.18389775e+00 4.17817780e+00 5.90078149e+00 0.00000000e+00 2.09307001e+00 3.66804391e+00 6.08707812e+00 
        </DataArray>
        <DataArray type="Float64" Name="p">
          -1.96073615e+03 -3.12183994e+03 -4.28294372e+03 -5.44404751e+03 -2.15254041e+03 -3.30528415e+03 -4.45802789e+03 -5.61077164e+03 -2.34434466e+03 -3.48872836e+03 -4.63311206e+03 -5.77749577e+03 -2.53614891e+03 -3.67217257e+03 -4.80819623e+03 -5.94421989e+03 
        </DataArray>
      </PointData>
    </Piece>
    <Piece NumberOfPoints="16" NumberOfCells="9">
      <Points>
        <DataArray type="Float64" NumberOfComponents="3" format="ascii">
          0.00000000e+00 5.00000000e+00 0.00000000e+00 
8.33333313e-01 5.00000000e+00 0.00000000e+00 
1.66666663e+00 5.00000000e+00 0.00000000e+00 
2.50000000e+00 5.00000000e+00 0.00000000e+00 
0.00000000e+00 5.33333349e+00 0.00000000e+00 
8.33333313e-01 5.33333349e+00 0.00000000e+00 
1.66666663e+00 5.33333349e+00 0.00000000e+00 
2.50000000e+00 5.33333349e+00 0.00000000e+00 
0.00000000e+00 5.66666651e+00 0.00000000e+00 
8.33333313e-01 5.66666651e+00 0.00000000e+00 
1.66666663e+00 5.66666651e+00 0.00000000e+00 
2.50000000e+00 5.66666651e+00 0.00000000e+00 
0.00000000e+00 6.00000000e+00 0.00000000e+00 
8.33333313e-01 6.00000000e+00 0.00000000e+00 
1.66666663e+00 6.00000000e+00 0.00000000e+00 
2.50000000e+00 6.00000000e+00 0.00000000e+00 

        </DataArray>
      </Points>
      <Cells>
        <DataArray type="Int32" Name="connectivity" format="ascii">
0 1 5 4
4 5 9 8
8 9 13 12
1 2 6 5
5 6 10 9
9 10 14 13
2 3 7 6
6 7 11 10
10 11 15 14

        </DataArray>
        <DataArray type="Int32" Name="offsets" format="ascii">
4 8 12 16 20 24 28 32 36 
        </DataArray>
        <DataArray type="UInt8" Name="types" format="ascii">
9 9 9 9 9 9 9 9 9 
        </DataArray>
      </Cells>
      <PointData>
        <DataArray type="Float64" Name="u">
          2.00000000e+02 2.00683638e+02 2.01849261e+02 2.03818956e+02 1.55555556e+02 1.57787570e+02 1.58276337e+02 1.63005875e+02 8.88888889e+01 9.20004563e+01 9.13457865e+01 9.96409335e+01 0.00000000e+00 0.00000000e+00 0.00000000e+00 0.00000000e+00 
        </DataArray>
        <DataArray type="Float64" Name="v">
          0.00000000e+00 2.09307001e+00 3.66804391e+00 6.08707812e+00 0.00000000e+00 9.34742818e-01 2.11736196e+00 3.97139718e+00 0.00000000e+00 1.07744007e+00 1.54046380e+00 4.06501625e+00 0.00000000e+00 0.00000000e+00 0.00000000e+00 0.00000000e+00 
        </DataArray>
        <DataArray type="Float64" Name="p">
          -2.57461271e+03 -3.71191923e+03 -4.84922574e+03 -5.98653226e+03 -2.59724543e+03 -3.75698729e+03 -4.91672914e+03 -6.07647099e+03 -2.61987815e+03 -3.80205535e+03 -4.98423254e+03 -6.16640973e+03 -2.64251088e+03 -3.84712341e+03 -5.05173594e+03 -6.25634847e+03 
        </DataArray>
      </PointData>
    </Piece>
    <Piece NumberOfPoints="16" NumberOfCells="9">
      <Points>
        <DataArray type="Float64" NumberOfComponents="3" format="ascii">
          2.50000000e+00 0.00000000e+00 0.00000000e+00 
3.33333325e+00 0.00000000e+00 0.00000000e+00 
4.16666651e+00 0.00000000e+00 0.00000000e+00 
5.00000000e+00 0.00000000e+00 0.00000000e+00 
2.50000000e+00 3.33333343e-01 0.00000000e+00 
3.33333325e+00 3.33333343e-01 0.00000000e+00 
4.16666651e+00 3.33333343e-01 0.00000000e+00 
5.00000000e+00 3.33333343e-01 0.00000000e+00 
2.50000000e+00 6.66666687e-01 0.00000000e+00 
3.33333325e+00 6.66666687e-01 0.00000000e+00 
4.16666651e+00 6.66666687e-01 0.00000000e+00 
5.00000000e+00 6.66666687e-01 0.00000000e+00 
2.50000000e+00 1.00000000e+00 0.00000000e+00 
3.33333325e+00 1.00000000e+00 0.00000000e+00 
4.16666651e+00 1.00000000e+00 0.00000000e+00 
5.00000000e+00 1.00000000e+00 0.00000000e+00 

        </DataArray>
      </Points>
      <Cells>
        <DataArray type="Int32" Name="connectivity" format="ascii">
0 1 5 4
4 5 9 8
8 9 13 12
1 2 6 5
5 6 10 9
9 10 14 13
2 3 7 6
6 7 11 10
10 11 15 14

        </DataArray>
        <DataArray type="Int32" Name="offsets" format="ascii">
4 8 12 16 20 24 28 32 36 
        </DataArray>
        <DataArray type="UInt8" Name="types" format="ascii">
9 9 9 9 9 9 9 9 9 
        </DataArray>
      </Cells>
      <PointData>
        <DataArray type="Float64" Name="u">
          0.00000000e+00 0.00000000e+00 0.00000000e+00 0.00000000e+00 0.00000000e+00 -2.26802372e+00 -4.01852022e+00 -7.09150542e+00 0.00000000e+00 -4.07672248e+00 -7.39030314e+00 -1.22825608e+01 0.00000000e+00 -5.42722646e+00 -9.74709225e+00 -1.54249143e+01 
        </DataArray>
        <DataArray type="Float64" Name="v">
          0.00000000e+00 0.00000000e+00 0.00000000e+00 0.00000000e+00 0.00000000e+00 6.72774749e-01 7.29827054e-01 4.73662226e-01 0.00000000e+00 2.05865227e+00 2.06269856e+00 1.35705652e+00 0.00000000e+00 4.58252274e+00 4.27525798e+00 2.84550305e+00 
        </DataArray>
        <DataArray type="Float64" Name="p">
          -4.64425627e+03 -4.62024924e+03 -4.59624221e+03 -4.57223518e+03 -4.63442389e+03 -4.61039505e+03 -4.58636620e+03 -4.56233735e+03 -4.62459152e+03 -4.60054085e+03 -4.57649019e+03 -4.55243952e+03 -4.61475915e+03 -4.59068666e+03 -4.56661418e+03 -4.54254169e+03 
        </DataArray>
      </PointData>
    </Piece>
    <Piece NumberOfPoints="16" NumberOfCells="9">
      <Points>
        <DataArray type="Float64" NumberOfComponents="3" format="ascii">
          2.50000000e+00 1.00000000e+00 0.00000000e+00 
3.33333325e+00 1.00000000e+00 0.00000000e+00 
4.16666651e+00 1.00000000e+00 0.00000000e+00 
5.00000000e+00 1.00000000e+00 0.00000000e+00 
2.50000000e+00 1.33333337e+00 0.00000000e+00 
3.33333325e+00 1.33333337e+00 0.00000000e+00 
4.16666651e+00 1.33333337e+00 0.00000000e+00 
5.00000000e+00 1.33333337e+00 0.00000000e+00 
2.50000000e+00 1.66666663e+00 0.00000000e+00 
3.33333325e+00 1.66666663e+00 0.00000000e+00 
4.16666651e+00 1.66666663e+00 0.00000000e+00 
5.00000000e+00 1.66666663e+00 0.00000000e+00 
2.50000000e+00 2.00000000e+00 0.00000000e+00 
3.33333325e+00 2.00000000e+00 0.00000000e+00 
4.16666651e+00 2.00000000e+00 0.00000000e+00 
5.00000000e+00 2.00000000e+00 0.00000000e+00 

        </DataArray>
      </Points>
      <Cells>
        <DataArray type="Int32" Name="connectivity" format="ascii">
0 1 5 4
4 5 9 8
8 9 13 12
1 2 6 5
5 6 10 9
9 10 14 13
2 3 7 6
6 7 11 10
10 11 15 14

        </DataArray>
        <DataArray type="Int32" Name="offsets" format="ascii">
4 8 12 16 20 24 28 32 36 
        </DataArray>
        <DataArray type="UInt8" Name="types" format="ascii">
9 9 9 9 9 9 9 9 9 
        </DataArray>
      </Cells>
      <PointData>
        <DataArray type="Float64" Name="u">
          0.00000000e+00 -5.42722646e+00 -9.74709225e+00 -1.54249143e+01 0.00000000e+00 -6.30020974e+00 -1.08010789e+01 -1.63150969e+01 0.00000000e+00 -6.46868972e+00 -1.01208592e+01 -1.43387694e+01 0.00000000e+00 -5.43762570e+00 -7.02085528e+00 -8.75199755e+00 
        </DataArray>
        <DataArray type="Float64" Name="v">
          0.00000000e+00 4.58252274e+00 4.27525798e+00 2.84550305e+00 0.00000000e+00 7.79779172e+00 6.70574925e+00 4.23072536e+00 0.00000000e+00 1.04265661e+01 8.56993438e+00 5.06937109e+00 0.00000000e+00 1.34608836e+01 1.00849916e+01 5.23662369e+00 
        </DataArray>
        <DataArray type="Float64" Name="p">
          -4.60185603e+03 -4.58380627e+03 -4.56575651e+03 -4.54770675e+03 -4.66656480e+03 -4.63640530e+03 -4.60624580e+03 -4.57608631e+03 -4.73127357e+03 -4.68900434e+03 -4.64673510e+03 -4.60446587e+03 -4.79598235e+03 -4.74160337e+03 -4.68722440e+03 -4.63284543e+03 
        </DataArray>
      </PointData>
    </Piece>
    <Piece NumberOfPoints="16" NumberOfCells="9">
      <Points>
        <DataArray type="Float64" NumberOfComponents="3" format="ascii">
          2.50000000e+00 2.00000000e+00 0.00000000e+00 
3.33333325e+00 2.00000000e+00 0.00000000e+00 
4.16666651e+00 2.00000000e+00 0.00000000e+00 
5.00000000e+00 2.00000000e+00 0.00000000e+00 
2.50000000e+00 2.33333325e+00 0.00000000e+00 
3.33333325e+00 2.33333325e+00 0.00000000e+00 
4.16666651e+00 2.33333325e+00 0.00000000e+00 
5.00000000e+00 2.33333325e+00 0.00000000e+00 
2.50000000e+00 2.66666675e+00 0.00000000e+00 
3.33333325e+00 2.66666675e+00 0.00000000e+00 
4.16666651e+00 2.66666675e+00 0.00000000e+00 
5.00000000e+00 2.66666675e+00 0.00000000e+00 
2.50000000e+00 3.00000000e+00 0.00000000e+00 
3.33333325e+00 3.00000000e+00 0.00000000e+00 
4.16666651e+00 3.00000000e+00 0.00000000e+00 
5.00000000e+00 3.00000000e+00 0.00000000e+00 

        </DataArray>
      </Points>
      <Cells>
        <DataArray type="Int32" Name="connectivity" format="ascii">
0 1 5 4
4 5 9 8
8 9 13 12
1 2 6 5
5 6 10 9
9 10 14 13
2 3 7 6
6 7 11 10
10 11 15 14

        </DataArray>
        <DataArray type="Int32" Name="offsets" format="ascii">
4 8 12 16 20 24 28 32 36 
        </DataArray>
        <DataArray type="UInt8" Name="types" format="ascii">
9 9 9 9 9 9 9 9 9 
        </DataArray>
      </Cells>
      <PointData>
        <DataArray type="Float64" Name="u">
          0.00000000e+00 -5.43762570e+00 -7.02085528e+00 -8.75199755e+00 0.00000000e+00 -2.16293471e+00 -8.30871831e-01 2.64572197e+00 0.00000000e+00 8.00974158e+00 1.20228903e+01 2.06960722e+01 0.00000000e+00 3.70941018e+01 3.77102064e+01 4.85750340e+01 
        </DataArray>
        <DataArray type="Float64" Name="v">
          0.00000000e+00 1.34608836e+01 1.00849916e+01 5.23662369e+00 0.00000000e+00 1.54889017e+01 9.43617993e+00 3.80680973e+00 0.00000000e+00 1.37226539e+01 8.35406837e+00 2.74648506e+00 0.00000000e+00 5.73259362e+00 4.10197118e+00 2.43118745e+00 
        </DataArray>
        <DataArray type="Float64" Name="p">
          -4.77242784e+03 -4.75019435e+03 -4.72796086e+03 -4.70572737e+03 -5.01461510e+03 -4.87624228e+03 -4.73786947e+03 -4.59949665e+03 -5.25680236e+03 -5.00229022e+03 -4.74777807e+03 -4.49326593e+03 -5.49898962e+03 -5.12833815e+03 -4.75768668e+03 -4.38703521e+03 
        </DataArray>
      </PointData>
    </Piece>
    <Piece NumberOfPoints="16" NumberOfCells="9">
      <Points>
        <DataArray type="Float64" NumberOfComponents="3" format="ascii">
          2.50000000e+00 3.00000000e+00 0.00000000e+00 
3.33333325e+00 3.00000000e+00 0.00000000e+00 
4.16666651e+00 3.00000000e+00 0.00000000e+00 
5.00000000e+00 3.00000000e+00 0.00000000e+00 
2.50000000e+00 3.33333325e+00 0.00000000e+00 
3.33333325e+00 3.33333325e+00 0.00000000e+00 
4.16666651e+00 3.33333325e+00 0.00000000e+00 
5.00000000e+00 3.33333325e+00 0.00000000e+00 
2.50000000e+00 3.66666675e+00 0.00000000e+00 
3.33333325e+00 3.66666675e+00 0.00000000e+00 
4.16666651e+00 3.66666675e+00 0.00000000e+00 
5.00000000e+00 3.66666675e+00 0.00000000e+00 
2.50000000e+00 4.00000000e+00 0.00000000e+00 
3.33333325e+00 4.00000000e+00 0.00000000e+00 
4.16666651e+00 4.00000000e+00 0.00000000e+00 
5.00000000e+00 4.00000000e+00 0.00000000e+00 

        </DataArray>
      </Points>
      <Cells>
        <DataArray type="Int32" Name="connectivity" format="ascii">
0 1 5 4
4 5 9 8
8 9 13 12
1 2 6 5
5 6 10 9
9 10 14 13
2 3 7 6
6 7 11 10
10 11 15 14

        </DataArray>
        <DataArray type="Int32" Name="offsets" format="ascii">
4 8 12 16 20 24 28 32 36 
        </DataArray>
        <DataArray type="UInt8" Name="types" format="ascii">
9 9 9 9 9 9 9 9 9 
        </DataArray>
      </Cells>
      <PointData>
        <DataArray type="Float64" Name="u">
          0.00000000e+00 3.70941018e+01 3.77102064e+01 4.85750340e+01 8.20933428e+01 8.39577779e+01 8.25282965e+01 8.23148251e+01 1.48462319e+02 1.40893038e+02 1.35306491e+02 1.26871655e+02 1.94058969e+02 1.85459172e+02 1.80002993e+02 1.68363363e+02 
        </DataArray>
        <DataArray type="Float64" Name="v">
          0.00000000e+00 5.73259362e+00 4.10197118e+00 2.43118745e+00 1.12197876e+00 -3.23868895e-01 2.93273855e+00 6.13586844e+00 2.63372801e+00 -1.77621622e-01 1.99439022e+00 7.20478765e+00 4.61855252e+00 3.92335572e+00 6.91899219e+00 1.12805331e+01 
        </DataArray>
        <DataArray type="Float64" Name="p">
          -5.53356184e+03 -5.07362226e+03 -4.61368267e+03 -4.15374309e+03 -5.27144912e+03 -4.98866199e+03 -4.70587487e+03 -4.42308774e+03 -5.00933639e+03 -4.90370173e+03 -4.79806706e+03 -4.69243239e+03 -4.74722367e+03 -4.81874146e+03 -4.89025925e+03 -4.96177705e+03 
        </DataArray>
      </PointData>
    </Piece>
    <Piece NumberOfPoints="16" NumberOfCells="9">
      <Points>
        <DataArray type="Float64" NumberOfComponents="3" format="ascii">
          2.50000000e+00 4.00000000e+00 0.00000000e+00 
3.33333325e+00 4.00000000e+00 0.00000000e+00 
4.16666651e+00 4.00000000e+00 0.00000000e+00 
5.00000000e+00 4.00000000e+00 0.00000000e+00 
2.50000000e+00 4.33333349e+00 0.00000000e+00 
3.33333325e+00 4.33333349e+00 0.00000000e+00 
4.16666651e+00 4.33333349e+00 0.00000000e+00 
5.00000000e+00 4.33333349e+00 0.00000000e+00 
2.50000000e+00 4.66666651e+00 0.00000000e+00 
3.33333325e+00 4.66666651e+00 0.00000000e+00 
4.16666651e+00 4.66666651e+00 0.00000000e+00 
5.00000000e+00 4.66666651e+00 0.00000000e+00 
2.50000000e+00 5.00000000e+00 0.00000000e+00 
3.33333325e+00 5.00000000e+00 0.00000000e+00 
4.16666651e+00 5.00000000e+00 0.00000000e+00 
5.00000000e+00 5.00000000e+00 0.00000000e+00 

        </DataArray>
      </Points>
      <Cells>
        <DataArray type="Int32" Name="connectivity" format="ascii">
0 1 5 4
4 5 9 8
8 9 13 12
1 2 6 5
5 6 10 9
9 10 14 13
2 3 7 6
6 7 11 10
10 11 15 14

        </DataArray>
        <DataArray type="Int32" Name="offsets" format="ascii">
4 8 12 16 20 24 28 32 36 
        </DataArray>
        <DataArray type="UInt8" Name="types" format="ascii">
9 9 9 9 9 9 9 9 9 
        </DataArray>
      </Cells>
      <PointData>
        <DataArray type="Float64" Name="u">
          1.94058969e+02 1.85459172e+02 1.80002993e+02 1.68363363e+02 2.19074096e+02 2.10825426e+02 2.06940770e+02 1.96406763e+02 2.22471483e+02 2.15714403e+02 2.14526207e+02 2.06768918e+02 2.03818956e+02 1.98877456e+02 2.01733674e+02 1.97108335e+02 
        </DataArray>
        <DataArray type="Float64" Name="v">
          4.61855252e+00 3.92335572e+00 6.91899219e+00 1.12805331e+01 5.97173688e+00 8.51747337e+00 1.10883277e+01 1.45620932e+01 5.90078149e+00 9.29312275e+00 1.32873712e+01 1.69765461e+01 6.08707812e+00 1.24003326e+01 1.55077374e+01 1.76212097e+01 
        </DataArray>
        <DataArray type="Float64" Name="p">
          -4.64062303e+03 -4.79937970e+03 -4.95813636e+03 -5.11689303e+03 -4.89802797e+03 -5.09377626e+03 -5.28952456e+03 -5.48527285e+03 -5.15543291e+03 -5.38817283e+03 -5.62091275e+03 -5.85365266e+03 -5.41283786e+03 -5.68256940e+03 -5.95230094e+03 -6.22203248e+03 
        </DataArray>
      </PointData>
    </Piece>
    <Piece NumberOfPoints="16" NumberOfCells="9">
      <Points>
        <DataArray type="Float64" NumberOfComponents="3" format="ascii">
          2.50000000e+00 5.00000000e+00 0.00000000e+00 
3.33333325e+00 5.00000000e+00 0.00000000e+00 
4.16666651e+00 5.00000000e+00 0.00000000e+00 
5.00000000e+00 5.00000000e+00 0.00000000e+00 
2.50000000e+00 5.33333349e+00 0.00000000e+00 
3.33333325e+00 5.33333349e+00 0.00000000e+00 
4.16666651e+00 5.33333349e+00 0.00000000e+00 
5.00000000e+00 5.33333349e+00 0.00000000e+00 
2.50000000e+00 5.66666651e+00 0.00000000e+00 
3.33333325e+00 5.66666651e+00 0.00000000e+00 
4.16666651e+00 5.66666651e+00 0.00000000e+00 
5.00000000e+00 5.66666651e+00 0.00000000e+00 
2.50000000e+00 6.00000000e+00 0.00000000e+00 
3.33333325e+00 6.00000000e+00 0.00000000e+00 
4.16666651e+00 6.00000000e+00 0.00000000e+00 
5.00000000e+00 6.00000000e+00 0.00000000e+00 

        </DataArray>
      </Points>
      <Cells>
        <DataArray type="Int32" Name="connectivity" format="ascii">
0 1 5 4
4 5 9 8
8 9 13 12
1 2 6 5
5 6 10 9
9 10 14 13
2 3 7 6
6 7 11 10
10 11 15 14

        </DataArray>
        <DataArray type="Int32" Name="offsets" format="ascii">
4 8 12 16 20 24 28 32 36 
        </DataArray>
        <DataArray type="UInt8" Name="types" format="ascii">
9 9 9 9 9 9 9 9 9 
        </DataArray>
      </Cells>
      <PointData>
        <DataArray type="Float64" Name="u">
          2.03818956e+02 1.98877456e+02 2.01733674e+02 1.97108335e+02 1.63005875e+02 1.62140967e+02 1.67544614e+02 1.69885002e+02 9.96409335e+01 1.07145739e+02 1.17918974e+02 1.29146993e+02 0.00000000e+00 5.29806998e+01 6.42780309e+01 8.77010410e+01 
        </DataArray>
        <DataArray type="Float64" Name="v">
          6.08707812e+00 1.24003326e+01 1.55077374e+01 1.76212097e+01 3.97139718e+00 1.25108954e+01 1.53965770e+01 1.50245804e+01 4.06501625e+00 1.22779059e+01 1.36221786e+01 1.29702464e+01 0.00000000e+00 1.01599661e+00 5.88800154e+00 1.06621124e+01 
        </DataArray>
        <DataArray type="Float64" Name="p">
          -5.59071156e+03 -5.81012832e+03 -6.02954509e+03 -6.24896185e+03 -6.22321861e+03 -6.17766643e+03 -6.13211424e+03 -6.08656206e+03 -6.85572567e+03 -6.54520453e+03 -6.23468340e+03 -5.92416227e+03 -7.48823272e+03 -6.91274264e+03 -6.33725256e+03 -5.76176247e+03 
        </DataArray>
      </PointData>
    </Piece>
    <Piece NumberOfPoints="16" NumberOfCells="9">
      <Points>
        <DataArray type="Float64" NumberOfComponents="3" format="ascii">
          2.50000000e+00 6.00000000e+00 0.00000000e+00 
3.33333325e+00 6.00000000e+00 0.00000000e+00 
4.16666651e+00 6.00000000e+00 0.00000000e+00 
5.00000000e+00 6.00000000e+00 0.00000000e+00 
2.50000000e+00 6.33333349e+00 0.00000000e+00 
3.33333325e+00 6.33333349e+00 0.00000000e+00 
4.16666651e+00 6.33333349e+00 0.00000000e+00 
5.00000000e+00 6.33333349e+00 0.00000000e+00 
2.50000000e+00 6.66666651e+00 0.00000000e+00 
3.33333325e+00 6.66666651e+00 0.00000000e+00 
4.16666651e+00 6.66666651e+00 0.00000000e+00 
5.00000000e+00 6.66666651e+00 0.00000000e+00 
2.50000000e+00 7.00000000e+00 0.00000000e+00 
3.33333325e+00 7.00000000e+00 0.00000000e+00 
4.16666651e+00 7.00000000e+00 0.00000000e+00 
5.00000000e+00 7.00000000e+00 0.00000000e+00 

        </DataArray>
      </Points>
      <Cells>
        <DataArray type="Int32" Name="connectivity" format="ascii">
0 1 5 4
4 5 9 8
8 9 13 12
1 2 6 5
5 6 10 9
9 10 14 13
2 3 7 6
6 7 11 10
10 11 15 14

        </DataArray>
        <DataArray type="Int32" Name="offsets" format="ascii">
4 8 12 16 20 24 28 32 36 
        </DataArray>
        <DataArray type="UInt8" Name="types" format="ascii">
9 9 9 9 9 9 9 9 9 
        </DataArray>
      </Cells>
      <PointData>
        <DataArray type="Float64" Name="u">
          0.00000000e+00 5.29806998e+01 6.42780309e+01 8.77010410e+01 0.00000000e+00 1.44023247e+01 2.66718993e+01 4.82767010e+01 0.00000000e+00 1.22720247e-01 6.79730985e+00 2.00142427e+01 0.00000000e+00 -4.87025134e+00 -3.46757382e+00 -1.65189539e-01 
        </DataArray>
        <DataArray type="Float64" Name="v">
          0.00000000e+00 1.01599661e+00 5.88800154e+00 1.06621124e+01 0.00000000e+00 -1.23689302e+01 -3.79793859e+00 6.26795030e+00 0.00000000e+00 -1.67950574e+01 -8.28982083e+00 1.77461219e+00 0.00000000e+00 -1.57124021e+01 -1.16322842e+01 -3.55530738e+00 
        </DataArray>
        <DataArray type="Float64" Name="p">
          -7.34873418e+03 -6.86570010e+03 -6.38266602e+03 -5.89963194e+03 -7.04799250e+03 -6.72838057e+03 -6.40876864e+03 -6.08915671e+03 -6.74725082e+03 -6.59106104e+03 -6.43487126e+03 -6.27868148e+03 -6.44650915e+03 -6.45374152e+03 -6.46097388e+03 -6.46820625e+03 
        </DataArray>
      </PointData>
    </Piece>
    <Piece NumberOfPoints="16" NumberOfCells="9">
      <Points>
        <DataArray type="Float64" NumberOfComponents="3" format="ascii">
          2.50000000e+00 7.00000000e+00 0.00000000e+00 
3.33333325e+00 7.00000000e+00 0.00000000e+00 
4.16666651e+00 7.00000000e+00 0.00000000e+00 
5.00000000e+00 7.00000000e+00 0.00000000e+00 
2.50000000e+00 7.33333349e+00 0.00000000e+00 
3.33333325e+00 7.33333349e+00 0.00000000e+00 
4.16666651e+00 7.33333349e+00 0.00000000e+00 
5.00000000e+00 7.33333349e+00 0.00000000e+00 
2.50000000e+00 7.66666651e+00 0.00000000e+00 
3.33333325e+00 7.66666651e+00 0.00000000e+00 
4.16666651e+00 7.66666651e+00 0.00000000e+00 
5.00000000e+00 7.66666651e+00 0.00000000e+00 
2.50000000e+00 8.00000000e+00 0.00000000e+00 
3.33333325e+00 8.00000000e+00 0.00000000e+00 
4.16666651e+00 8.00000000e+00 0.00000000e+00 
5.00000000e+00 8.00000000e+00 0.00000000e+00 

        </DataArray>
      </Points>
      <Cells>
        <DataArray type="Int32" Name="connectivity" format="ascii">
0 1 5 4
4 5 9 8
8 9 13 12
1 2 6 5
5 6 10 9
9 10 14 13
2 3 7 6
6 7 11 10
10 11 15 14

        </DataArray>
        <DataArray type="Int32" Name="offsets" format="ascii">
4 8 12 16 20 24 28 32 36 
        </DataArray>
        <DataArray type="UInt8" Name="types" format="ascii">
9 9 9 9 9 9 9 9 9 
        </DataArray>
      </Cells>
      <PointData>
        <DataArray type="Float64" Name="u">
          0.00000000e+00 -4.87025134e+00 -3.46757382e+00 -1.65189539e-01 0.00000000e+00 -7.04567487e+00 -9.68135558e+00 -1.21639840e+01 0.00000000e+00 -7.60138887e+00 -1.24182360e+01 -1.85695309e+01 0.00000000e+00 -7.03953102e+00 -1.23497924e+01 -2.00332635e+01 
        </DataArray>
        <DataArray type="Float64" Name="v">
          0.00000000e+00 -1.57124021e+01 -1.16322842e+01 -3.55530738e+00 0.00000000e+00 -1.29126972e+01 -1.10164455e+01 -5.50452058e+00 0.00000000e+00 -1.00118850e+01 -9.09942808e+00 -5.51319477e+00 0.00000000e+00 -6.11262488e+00 -6.02803699e+00 -4.20778141e+00 
        </DataArray>
        <DataArray type="Float64" Name="p">
          -6.48957288e+03 -6.44303063e+03 -6.39648839e+03 -6.34994614e+03 -6.41329803e+03 -6.37071048e+03 -6.32812293e+03 -6.28553538e+03 -6.33702318e+03 -6.29839032e+03 -6.25975747e+03 -6.22112461e+03 -6.26074832e+03 -6.22607016e+03 -6.19139200e+03 -6.15671384e+03 
        </DataArray>
      </PointData>
    </Piece>
    <Piece NumberOfPoints="16" NumberOfCells="9">
      <Points>
        <DataArray type="Float64" NumberOfComponents="3" format="ascii">
          2.50000000e+00 8.00000000e+00 0.00000000e+00 
3.33333325e+00 8.00000000e+00 0.00000000e+00 
4.16666651e+00 8.00000000e+00 0.00000000e+00 
5.00000000e+00 8.00000000e+00 0.00000000e+00 
2.50000000e+00 8.33333302e+00 0.00000000e+00 
3.33333325e+00 8.33333302e+00 0.00000000e+00 
4.16666651e+00 8.33333302e+00 0.00000000e+00 
5.00000000e+00 8.33333302e+00 0.00000000e+00 
2.50000000e+00 8.66666698e+00 0.00000000e+00 
3.33333325e+00 8.66666698e+00 0.00000000e+00 
4.16666651e+00 8.66666698e+00 0.00000000e+00 
5.00000000e+00 8.66666698e+00 0.00000000e+00 
2.50000000e+00 9.00000000e+00 0.00000000e+00 
3.33333325e+00 9.00000000e+00 0.00000000e+00 
4.16666651e+00 9.00000000e+00 0.00000000e+00 
5.00000000e+00 9.00000000e+00 0.00000000e+00 

        </DataArray>
      </Points>
      <Cells>
        <DataArray type="Int32" Name="connectivity" format="ascii">
0 1 5 4
4 5 9 8
8 9 13 12
1 2 6 5
5 6 10 9
9 10 14 13
2 3 7 6
6 7 11 10
10 11 15 14

        </DataArray>
        <DataArray type="Int32" Name="offsets" format="ascii">
4 8 12 16 20 24 28 32 36 
        </DataArray>
        <DataArray type="UInt8" Name="types" format="ascii">
9 9 9 9 9 9 9 9 9 
        </DataArray>
      </Cells>
      <PointData>
        <DataArray type="Float64" Name="u">
          0.00000000e+00 -7.03953102e+00 -1.23497924e+01 -2.00332635e+01 0.00000000e+00 -5.54466765e+00 -9.87816795e+00 -1.71092119e+01 0.00000000e+00 -3.17760137e+00 -5.53520759e+00 -1.00711728e+01 0.00000000e+00 0.00000000e+00 0.00000000e+00 0.00000000e+00 
        </DataArray>
        <DataArray type="Float64" Name="v">
          0.00000000e+00 -6.11262488e+00 -6.02803699e+00 -4.20778141e+00 0.00000000e+00 -2.79847365e+00 -2.87697494e+00 -2.16789175e+00 0.00000000e+00 -9.56852037e-01 -1.03515849e+00 -8.67748358e-01 0.00000000e+00 0.00000000e+00 0.00000000e+00 0.00000000e+00 
        </DataArray>
        <DataArray type="Float64" Name="p">
          -6.27373983e+03 -6.22948114e+03 -6.18522244e+03 -6.14096375e+03 -6.28443696e+03 -6.24123802e+03 -6.19803908e+03 -6.15484013e+03 -6.29513409e+03 -6.25299490e+03 -6.21085571e+03 -6.16871652e+03 -6.30583121e+03 -6.26475178e+03 -6.22367234e+03 -6.18259291e+03 
        </DataArray>
      </PointData>
    </Piece>
    <Piece NumberOfPoints="16" NumberOfCells="9">
      <Points>
        <DataArray type="Float64" NumberOfComponents="3" format="ascii">
          5.00000000e+00 0.00000000e+00 0.00000000e+00 
5.83333349e+00 0.00000000e+00 0.00000000e+00 
6.66666651e+00 0.00000000e+00 0.00000000e+00 
7.50000000e+00 0.00000000e+00 0.00000000e+00 
5.00000000e+00 3.33333343e-01 0.00000000e+00 
5.83333349e+00 3.33333343e-01 0.00000000e+00 
6.66666651e+00 3.33333343e-01 0.00000000e+00 
7.50000000e+00 3.33333343e-01 0.00000000e+00 
5.00000000e+00 6.66666687e-01 0.00000000e+00 
5.83333349e+00 6.66666687e-01 0.00000000e+00 
6.66666651e+00 6.66666687e-01 0.00000000e+00 
7.50000000e+00 6.66666687e-01 0.00000000e+00 
5.00000000e+00 1.00000000e+00 0.00000000e+00 
5.83333349e+00 1.00000000e+00 0.00000000e+00 
6.66666651e+00 1.00000000e+00 0.00000000e+00 
7.50000000e+00 1.00000000e+00 0.00000000e+00 

        </DataArray>
      </Points>
      <Cells>
        <DataArray type="Int32" Name="connectivity" format="ascii">
0 1 5 4
4 5 9 8
8 9 13 12
1 2 6 5
5 6 10 9
9 10 14 13
2 3 7 6
6 7 11 10
10 11 15 14

        </DataArray>
        <DataArray type="Int32" Name="offsets" format="ascii">
4 8 12 16 20 24 28 32 36 
        </DataArray>
        <DataArray type="UInt8" Name="types" format="ascii">
9 9 9 9 9 9 9 9 9 
        </DataArray>
      </Cells>
      <PointData>
        <DataArray type="Float64" Name="u">