<?xml version="1.0"?>
<VTKFile type="UnstructuredGrid" version="0.1" byte_order="LittleEndian">
  <UnstructuredGrid>
    <Piece NumberOfPoints="16" NumberOfCells="9">
      <Points>
        <DataArray type="Float64" NumberOfComponents="3" format="ascii">
          0.00000000e+00 3.00000000e+00 0.00000000e+00 
8.33333313e-01 3.00000000e+00 0.00000000e+00 
1.66666663e+00 3.00000000e+00 0.00000000e+00 
2.50000000e+00 3.00000000e+00 0.00000000e+00 
0.00000000e+00 3.33333325e+00 0.00000000e+00 
8.33333313e-01 3.33333325e+00 0.00000000e+00 
1.66666663e+00 3.33333325e+00 0.00000000e+00 
2.50000000e+00 3.33333325e+00 0.00000000e+00 
0.00000000e+00 3.66666675e+00 0.00000000e+00 
8.33333313e-01 3.66666675e+00 0.00000000e+00 
1.66666663e+00 3.66666675e+00 0.00000000e+00 
2.50000000e+00 3.66666675e+00 0.00000000e+00 
0.00000000e+00 4.00000000e+00 0.00000000e+00 
8.33333313e-01 4.00000000e+00 0.00000000e+00 
1.66666663e+00 4.00000000e+00 0.00000000e+00 
2.50000000e+00 4.00000000e+00 0.00000000e+00 

        </DataArray>
      </Points>
      <Cells>
        <DataArray type="Int32" Name="connectivity" format="ascii">
0 1 5 4
4 5 9 8
8 9 13 12
1 2 6 5
5 6 10 9
9 10 14 13
2 3 7 6
6 7 11 10
10 11 15 14

        </DataArray>
        <DataArray type="Int32" Name="offsets" format="ascii">
4 8 12 16 20 24 28 32 36 
        </DataArray>
        <DataArray type="UInt8" Name="types" format="ascii">
9 9 9 9 9 9 9 9 9 
        </DataArray>
      </Cells>
      <PointData>
        <DataArray type="Float64" Name="u">
          0.00000000e+00 0.00000000e+00 0.00000000e+00 0.00000000e+00 8.88888889e+01 8.72404872e+01 8.76226153e+01 8.28497406e+01 1.55555556e+02 1.53253113e+02 1.54132536e+02 1.48968590e+02 2.00000000e+02 1.97674165e+02 1.98714999e+02 1.94332415e+02 
        </DataArray>
        <DataArray type="Float64" Name="v">
          0.00000000e+00 0.00000000e+00 0.00000000e+00 0.00000000e+00 0.00000000e+00 5.02593081e-01 1.31658161e+00 8.66902660e-01 0.00000000e+00 5.10183345e-01 1.48523568e+00 2.36512687e+00 0.00000000e+00 1.39191481e+00 3.00352406e+00 4.23205459e+00 
        </DataArray>
        <DataArray type="Float64" Name="p">
          -1.69550835e+03 -2.87859512e+03 -4.06168188e+03 -5.24476864e+03 -1.72755139e+03 -2.91322852e+03 -4.09890566e+03 -5.28458279e+03 -1.75959442e+03 -2.94786192e+03 -4.13612943e+03 -5.32439694e+03 -1.79163745e+03 -2.98249533e+03 -4.17335320e+03 -5.36421108e+03 
        </DataArray>
      </PointData>
    </Piece>
    <Piece NumberOfPoints="16" NumberOfCells="9">
      <Points>
        <DataArray type="Float64" NumberOfComponents="3" format="ascii">
          0.00000000e+00 4.00000000e+00 0.00000000e+00 
8.33333313e-01 4.00000000e+00 0.00000000e+00 
1.66666663e+00 4.00000000e+00 0.00000000e+00 
2.50000000e+00 4.00000000e+00 0.00000000e+00 
0.00000000e+00 4.33333349e+00 0.00000000e+00 
8.33333313e-01 4.33333349e+00 0.00000000e+00 
1.66666663e+00 4.33333349e+00 0.00000000e+00 
2.50000000e+00 4.33333349e+00 0.00000000e+00 
0.00000000e+00 4.66666651e+00 0.00000000e+00 
8.33333313e-01 4.66666651e+00 0.00000000e+00 
1.66666663e+00 4.66666651e+00 0.00000000e+00 
2.50000000e+00 4.66666651e+00 0.00000000e+00 
0.00000000e+00 5.00000000e+00 0.00000000e+00 
8.33333313e-01 5.00000000e+00 0.00000000e+00 
1.66666663e+00 5.00000000e+00 0.00000000e+00 
2.50000000e+00 5.00000000e+00 0.00000000e+00 

        </DataArray>
      </Points>
      <Cells>
        <DataArray type="Int32" Name="connectivity" format="ascii">
0 1 5 4
4 5 9 8
8 9 13 12
1 2 6 5
5 6 10 9
9 10 14 13
2 3 7 6
6 7 11 10
10 11 15 14

        </DataArray>
        <DataArray type="Int32" Name="offsets" format="ascii">
4 8 12 16 20 24 28 32 36 
        </DataArray>
        <DataArray type="UInt8" Name="types" format="ascii">
9 9 9 9 9 9 9 9 9 
        </DataArray>
      </Cells>
      <PointData>
        <DataArray type="Float64" Name="u">
          2.00000000e+02 1.97674165e+02 1.98714999e+02 1.94332415e+02 2.22222222e+02 2.20617127e+02 2.21551815e+02 2.19124982e+02 2.22222222e+02 2.21646914e+02 2.22702594e+02 2.22303122e+02 2.00000000e+02 2.00537213e+02 2.01780133e+02 2.03440240e+02 
        </DataArray>
        <DataArray type="Float64" Name="v">
          0.00000000e+00 1.39191481e+00 3.00352406e+00 4.23205459e+00 0.00000000e+00 2.01542079e+00 3.69777842e+00 5.58057637e+00 0.00000000e+00 2.02170901e+00 3.88873712e+00 5.50896251e+00 0.00000000e+00 1.96094938e+00 3.42884377e+00 5.75953799e+00 
        </DataArray>
        <DataArray type="Float64" Name="p">
          -1.78854140e+03 -2.99798178e+03 -4.20742216e+03 -5.41686254e+03 -1.96474867e+03 -3.16848935e+03 -4.37223003e+03 -5.57597071e+03 -2.14095594e+03 -3.33899692e+03 -4.53703790e+03 -5.73507888e+03 -2.31716321e+03 -3.50950449e+03 -4.70184577e+03 -5.89418705e+03 
        </DataArray>
      </PointData>
    </Piece>
    <Piece NumberOfPoints="16" NumberOfCells="9">
      <Points>
        <DataArray type="Float64" NumberOfComponents="3" format="ascii">
          0.00000000e+00 5.00000000e+00 0.00000000e+00 
8.33333313e-01 5.00000000e+00 0.00000000e+00 
1.66666663e+00 5.00000000e+00 0.00000000e+00 
2.50000000e+00 5.00000000e+00 0.00000000e+00 
0.00000000e+00 5.33333349e+00 0.00000000e+00 
8.33333313e-01 5.33333349e+00 0.00000000e+00 
1.66666663e+00 5.33333349e+00 0.00000000e+00 
2.50000000e+00 5.33333349e+00 0.00000000e+00 
0.00000000e+00 5.66666651e+00 0.00000000e+00 
8.33333313e-01 5.66666651e+00 0.00000000e+00 
1.66666663e+00 5.66666651e+00 0.00000000e+00 
2.50000000e+00 5.66666651e+00 0.00000000e+00 
0.00000000e+00 6.00000000e+00 0.00000000e+00 
8.33333313e-01 6.00000000e+00 0.00000000e+00 
1.66666663e+00 6.00000000e+00 0.00000000e+00 
2.50000000e+00 6.00000000e+00 0.00000000e+00 

        </DataArray>
      </Points>
      <Cells>
        <DataArray type="Int32" Name="connectivity" format="ascii">
0 1 5 4
4 5 9 8
8 9 13 12
1 2 6 5
5 6 10 9
9 10 14 13
2 3 7 6
6 7 11 10
10 11 15 14

        </DataArray>
        <DataArray type="Int32" Name="offsets" format="ascii">
4 8 12 16 20 24 28 32 36 
        </DataArray>
        <DataArray type="UInt8" Name="types" format="ascii">
9 9 9 9 9 9 9 9 9 
        </DataArray>
      </Cells>
      <PointData>
        <DataArray type="Float64" Name="u">
          2.00000000e+02 2.00537213e+02 2.01780133e+02 2.03440240e+02 1.55555556e+02 1.57600286e+02 1.58165567e+02 1.62539687e+02 8.88888889e+01 9.17815122e+01 9.12144274e+01 9.90321083e+01 0.00000000e+00 0.00000000e+00 0.00000000e+00 0.00000000e+00 
        </DataArray>
        <DataArray type="Float64" Name="v">
          0.00000000e+00 1.96094938e+00 3.42884377e+00 5.75953799e+00 0.00000000e+00 8.89391414e-01 1.98871921e+00 3.80963218e+00 0.00000000e+00 9.98859000e-01 1.41158312e+00 3.94083498e+00 0.00000000e+00 0.00000000e+00 0.00000000e+00 0.00000000e+00 
        </DataArray>
        <DataArray type="Float64" Name="p">
          -2.35501765e+03 -3.54837506e+03 -4.74173247e+03 -5.93508988e+03 -2.37361546e+03 -3.58998347e+03 -4.80635148e+03 -6.02271949e+03 -2.39221326e+03 -3.63159188e+03 -4.87097049e+03 -6.11034910e+03 -2.41081107e+03 -3.67320028e+03 -4.93558950e+03 -6.19797871e+03 
        </DataArray>
      </PointData>
    </Piece>
    <Piece NumberOfPoints="16" NumberOfCells="9">
      <Points>
        <DataArray type="Float64" NumberOfComponents="3" format="ascii">
          2.50000000e+00 0.00000000e+00 0.00000000e+00 
3.33333325e+00 0.00000000e+00 0.00000000e+00 
4.16666651e+00 0.00000000e+00 0.00000000e+00 
5.00000000e+00 0.00000000e+00 0.00000000e+00 
2.50000000e+00 3.33333343e-01 0.00000000e+00 
3.33333325e+00 3.33333343e-01 0.00000000e+00 
4.16666651e+00 3.33333343e-01 0.00000000e+00 
5.00000000e+00 3.33333343e-01 0.00000000e+00 
2.50000000e+00 6.66666687e-01 0.00000000e+00 
3.33333325e+00 6.66666687e-01 0.00000000e+00 
4.16666651e+00 6.66666687e-01 0.00000000e+00 
5.00000000e+00 6.66666687e-01 0.00000000e+00 
2.50000000e+00 1.00000000e+00 0.00000000e+00 
3.33333325e+00 1.00000000e+00 0.00000000e+00 
4.16666651e+00 1.00000000e+00 0.00000000e+00 
5.00000000e+00 1.00000000e+00 0.00000000e+00 

        </DataArray>
      </Points>
      <Cells>
        <DataArray type="Int32" Name="connectivity" format="ascii">
0 1 5 4
4 5 9 8
8 9 13 12
1 2 6 5
5 6 10 9
9 10 14 13
2 3 7 6
6 7 11 10
10 11 15 14

        </DataArray>
        <DataArray type="Int32" Name="offsets" format="ascii">
4 8 12 16 20 24 28 32 36 
        </DataArray>
        <DataArray type="UInt8" Name="types" format="ascii">
9 9 9 9 9 9 9 9 9 
        </DataArray>
      </Cells>
      <PointData>
        <DataArray type="Float64" Name="u">
          0.00000000e+00 0.00000000e+00 0.00000000e+00 0.00000000e+00 0.00000000e+00 -2.36746446e+00 -4.15584426e+00 -7.34494222e+00 0.00000000e+00 -4.23374776e+00 -7.61119594e+00 -1.26645795e+01 0.00000000e+00 -5.60716845e+00 -9.98629470e+00 -1.58158321e+01 
        </DataArray>
        <DataArray type="Float64" Name="v">
          0.00000000e+00 0.00000000e+00 0.00000000e+00 0.00000000e+00 0.00000000e+00 7.00085783e-01 7.57248978e-01 4.87954830e-01 0.00000000e+00 2.13258571e+00 2.13200379e+00 1.39143184e+00 0.00000000e+00 4.73516011e+00 4.40799085e+00 2.90830605e+00 
        </DataArray>
        <DataArray type="Float64" Name="p">
          -4.62905765e+03 -4.60147152e+03 -4.57388538e+03 -4.54629924e+03 -4.61852225e+03 -4.59093624e+03 -4.56335023e+03 -4.53576422e+03 -4.60798684e+03 -4.58040096e+03 -4.55281508e+03 -4.52522920e+03 -4.59745143e+03 -4.56986568e+03 -4.54227993e+03 -4.51469418e+03 
        </DataArray>
      </PointData>
    </Piece>
    <Piece NumberOfPoints="16" NumberOfCells="9">
      <Points>
        <DataArray type="Float64" NumberOfComponents="3" format="ascii">
          2.50000000e+00 1.00000000e+00 0.00000000e+00 
3.33333325e+00 1.00000000e+00 0.00000000e+00 
4.16666651e+00 1.00000000e+00 0.00000000e+00 
5.00000000e+00 1.00000000e+00 0.00000000e+00 
2.50000000e+00 1.33333337e+00 0.00000000e+00 
3.33333325e+00 1.33333337e+00 0.00000000e+00 
4.16666651e+00 1.33333337e+00 0.00000000e+00 
5.00000000e+00 1.33333337e+00 0.00000000e+00 
2.50000000e+00 1.66666663e+00 0.00000000e+00 
3.33333325e+00 1.66666663e+00 0.00000000e+00 
4.16666651e+00 1.66666663e+00 0.00000000e+00 
5.00000000e+00 1.66666663e+00 0.00000000e+00 
2.50000000e+00 2.00000000e+00 0.00000000e+00 
3.33333325e+00 2.00000000e+00 0.00000000e+00 
4.16666651e+00 2.00000000e+00 0.00000000e+00 
5.00000000e+00 2.00000000e+00 0.00000000e+00 

        </DataArray>
      </Points>
      <Cells>
        <DataArray type="Int32" Name="connectivity" format="ascii">
0 1 5 4
4 5 9 8
8 9 13 12
1 2 6 5
5 6 10 9
9 10 14 13
2 3 7 6
6 7 11 10
10 11 15 14

        </DataArray>
        <DataArray type="Int32" Name="offsets" format="ascii">
4 8 12 16 20 24 28 32 36 
        </DataArray>
        <DataArray type="UInt8" Name="types" format="ascii">
9 9 9 9 9 9 9 9 9 
        </DataArray>
      </Cells>
      <PointData>
        <DataArray type="Float64" Name="u">
          0.00000000e+00 -5.60716845e+00 -9.98629470e+00 -1.58158321e+01 0.00000000e+00 -6.47229527e+00 -1.09900972e+01 -1.65967661e+01 0.00000000e+00 -6.59598562e+00 -1.01863089e+01 -1.43896545e+01 0.00000000e+00 -5.46710951e+00 -6.88228138e+00 -8.45030873e+00 
        </DataArray>
        <DataArray type="Float64" Name="v">
          0.00000000e+00 4.73516011e+00 4.40799085e+00 2.90830605e+00 0.00000000e+00 8.02783112e+00 6.88571451e+00 4.29627340e+00 0.00000000e+00 1.07034430e+01 8.76950545e+00 5.10948844e+00 0.00000000e+00 1.37560075e+01 1.02534461e+01 5.19955896e+00 
        </DataArray>
        <DataArray type="Float64" Name="p">
          -4.58384856e+03 -4.56279542e+03 -4.54174228e+03 -4.52068914e+03 -4.65356404e+03 -4.61928420e+03 -4.58500436e+03 -4.55072451e+03 -4.72327953e+03 -4.67577298e+03 -4.62826643e+03 -4.58075988e+03 -4.79299502e+03 -4.73226176e+03 -4.67152851e+03 -4.61079525e+03 
        </DataArray>
      </PointData>
    </Piece>
    <Piece NumberOfPoints="16" NumberOfCells="9">
      <Points>
        <DataArray type="Float64" NumberOfComponents="3" format="ascii">
          2.50000000e+00 2.00000000e+00 0.00000000e+00 
3.33333325e+00 2.00000000e+00 0.00000000e+00 
4.16666651e+00 2.00000000e+00 0.00000000e+00 
5.00000000e+00 2.00000000e+00 0.00000000e+00 
2.50000000e+00 2.33333325e+00 0.00000000e+00 
3.33333325e+00 2.33333325e+00 0.00000000e+00 
4.16666651e+00 2.33333325e+00 0.00000000e+00 
5.00000000e+00 2.33333325e+00 0.00000000e+00 
2.50000000e+00 2.66666675e+00 0.00000000e+00 
3.33333325e+00 2.66666675e+00 0.00000000e+00 
4.16666651e+00 2.66666675e+00 0.00000000e+00 
5.00000000e+00 2.66666675e+00 0.00000000e+00 
2.50000000e+00 3.00000000e+00 0.00000000e+00 
3.33333325e+00 3.00000000e+00 0.00000000e+00 
4.16666651e+00 3.00000000e+00 0.00000000e+00 
5.00000000e+00 3.00000000e+00 0.00000000e+00 

        </DataArray>
      </Points>
      <Cells>
        <DataArray type="Int32" Name="connectivity" format="ascii">
0 1 5 4
4 5 9 8
8 9 13 12
1 2 6 5
5 6 10 9
9 10 14 13
2 3 7 6
6 7 11 10
10 11 15 14

        </DataArray>
        <DataArray type="Int32" Name="offsets" format="ascii">
4 8 12 16 20 24 28 32 36 
        </DataArray>
        <DataArray type="UInt8" Name="types" format="ascii">
9 9 9 9 9 9 9 9 9 
        </DataArray>
      </Cells>
      <PointData>
        <DataArray type="Float64" Name="u">
          0.00000000e+00 -5.46710951e+00 -6.88228138e+00 -8.45030873e+00 0.00000000e+00 -2.01065088e+00 -4.00316046e-01 3.42955726e+00 0.00000000e+00 8.52580457e+00 1.28904512e+01 2.20201777e+01 0.00000000e+00 3.81053216e+01 3.90526409e+01 5.04050847e+01 
        </DataArray>
        <DataArray type="Float64" Name="v">
          0.00000000e+00 1.37560075e+01 1.02534461e+01 5.19955896e+00 0.00000000e+00 1.57391689e+01 9.50212912e+00 3.64625319e+00 0.00000000e+00 1.37907210e+01 8.25439572e+00 2.49474392e+00 0.00000000e+00 5.46149915e+00 3.80193454e+00 2.11602662e+00 
        </DataArray>
        <DataArray type="Float64" Name="p">
          -4.76769574e+03 -4.74114005e+03 -4.71458435e+03 -4.68802866e+03 -5.02617685e+03 -4.87511243e+03 -4.72404800e+03 -4.57298358e+03 -5.28465797e+03 -5.00908481e+03 -4.73351165e+03 -4.45793849e+03 -5.54313908e+03 -5.14305719e+03 -4.74297530e+03 -4.34289341e+03 
        </DataArray>
      </PointData>
    </Piece>
    <Piece NumberOfPoints="16" NumberOfCells="9">
      <Points>
        <DataArray type="Float64" NumberOfComponents="3" format="ascii">
          2.50000000e+00 3.00000000e+00 0.00000000e+00 
3.33333325e+00 3.00000000e+00 0.00000000e+00 
4.16666651e+00 3.00000000e+00 0.00000000e+00 
5.00000000e+00 3.00000000e+00 0.00000000e+00 
2.50000000e+00 3.33333325e+00 0.00000000e+00 
3.33333325e+00 3.33333325e+00 0.00000000e+00 
4.16666651e+00 3.33333325e+00 0.00000000e+00 
5.00000000e+00 3.33333325e+00 0.00000000e+00 
2.50000000e+00 3.66666675e+00 0.00000000e+00 
3.33333325e+00 3.66666675e+00 0.00000000e+00 
4.16666651e+00 3.66666675e+00 0.00000000e+00 
5.00000000e+00 3.66666675e+00 0.00000000e+00 
2.50000000e+00 4.00000000e+00 0.00000000e+00 
3.33333325e+00 4.00000000e+00 0.00000000e+00 
4.16666651e+00 4.00000000e+00 0.00000000e+00 
5.00000000e+00 4.00000000e+00 0.00000000e+00 

        </DataArray>
      </Points>
      <Cells>
        <DataArray type="Int32" Name="connectivity" format="ascii">
0 1 5 4
4 5 9 8
8 9 13 12
1 2 6 5
5 6 10 9
9 10 14 13
2 3 7 6
6 7 11 10
10 11 15 14

        </DataArray>
        <DataArray type="Int32" Name="offsets" format="ascii">
4 8 12 16 20 24 28 32 36 
        </DataArray>
        <DataArray type="UInt8" Name="types" format="ascii">
9 9 9 9 9 9 9 9 9 
        </DataArray>
      </Cells>
      <PointData>
        <DataArray type="Float64" Name="u">
          0.00000000e+00 3.81053216e+01 3.90526409e+01 5.04050847e+01 8.28497406e+01 8.50059440e+01 8.40162056e+01 8.42784192e+01 1.48968590e+02 1.41563682e+02 1.36334573e+02 1.28328953e+02 1.94332415e+02 1.85702199e+02 1.80468930e+02 1.69018515e+02 
        </DataArray>
        <DataArray type="Float64" Name="v">
          0.00000000e+00 5.46149915e+00 3.80193454e+00 2.11602662e+00 8.66902660e-01 -8.39000608e-01 2.36632593e+00 5.62007396e+00 2.36512687e+00 -7.32420502e-01 1.38989849e+00 6.62269891e+00 4.23205459e+00 3.28311009e+00 6.13930873e+00 1.04236925e+01 
        </DataArray>
        <DataArray type="Float64" Name="p">
          -5.57800353e+03 -5.08773802e+03 -4.59747251e+03 -4.10720700e+03 -5.29167627e+03 -4.98901980e+03 -4.68636334e+03 -4.38370687e+03 -5.00534901e+03 -4.89030159e+03 -4.77525416e+03 -4.66020673e+03 -4.71902176e+03 -4.79158337e+03 -4.86414499e+03 -4.93670660e+03 
        </DataArray>
      </PointData>
    </Piece>
    <Piece NumberOfPoints="16" NumberOfCells="9">
      <Points>
        <DataArray type="Float64" NumberOfComponents="3" format="ascii">
          2.50000000e+00 4.00000000e+00 0.00000000e+00 
3.33333325e+00 4.00000000e+00 0.00000000e+00 
4.16666651e+00 4.00000000e+00 0.00000000e+00 
5.00000000e+00 4.00000000e+00 0.00000000e+00 
2.50000000e+00 4.33333349e+00 0.00000000e+00 
3.33333325e+00 4.33333349e+00 0.00000000e+00 
4.16666651e+00 4.33333349e+00 0.00000000e+00 
5.00000000e+00 4.33333349e+00 0.00000000e+00 
2.50000000e+00 4.66666651e+00 0.00000000e+00 
3.33333325e+00 4.66666651e+00 0.00000000e+00 
4.16666651e+00 4.66666651e+00 0.00000000e+00 
5.00000000e+00 4.66666651e+00 0.00000000e+00 
2.50000000e+00 5.00000000e+00 0.00000000e+00 
3.33333325e+00 5.00000000e+00 0.00000000e+00 
4.16666651e+00 5.00000000e+00 0.00000000e+00 
5.00000000e+00 5.00000000e+00 0.00000000e+00 

        </DataArray>
      </Points>
      <Cells>
        <DataArray type="Int32" Name="connectivity" format="ascii">
0 1 5 4
4 5 9 8
8 9 13 12
1 2 6 5
5 6 10 9
9 10 14 13
2 3 7 6
6 7 11 10
10 11 15 14

        </DataArray>
        <DataArray type="Int32" Name="offsets" format="ascii">
4 8 12 16 20 24 28 32 36 
        </DataArray>
        <DataArray type="UInt8" Name="types" format="ascii">
9 9 9 9 9 9 9 9 9 
        </DataArray>
      </Cells>
      <PointData>
        <DataArray type="Float64" Name="u">
          1.94332415e+02 1.85702199e+02 1.80468930e+02 1.69018515e+02 2.19124982e+02 2.10720536e+02 2.06870473e+02 1.96338457e+02 2.22303122e+02 2.15268846e+02 2.13948100e+02 2.05972004e+02 2.03440240e+02 1.98219967e+02 2.00742203e+02 1.95746755e+02 
        </DataArray>
        <DataArray type="Float64" Name="v">
          4.23205459e+00 3.28311009e+00 6.13930873e+00 1.04236925e+01 5.58057637e+00 7.89697997e+00 1.02573125e+01 1.35515956e+01 5.50896251e+00 8.75624695e+00 1.25648757e+01 1.60114839e+01 5.75953799e+00 1.19900508e+01 1.48807048e+01 1.66953247e+01 
        </DataArray>
        <DataArray type="Float64" Name="p">
          -4.60440220e+03 -4.76666170e+03 -4.92892120e+03 -5.09118071e+03 -4.84612719e+03 -5.04368888e+03 -5.24125058e+03 -5.43881227e+03 -5.08785217e+03 -5.32071606e+03 -5.55357995e+03 -5.78644384e+03 -5.32957716e+03 -5.59774325e+03 -5.86590933e+03 -6.13407541e+03 
        </DataArray>
      </PointData>
    </Piece>
    <Piece NumberOfPoints="16" NumberOfCells="9">
      <Points>
        <DataArray type="Float64" NumberOfComponents="3" format="ascii">
          2.50000000e+00 5.00000000e+00 0.00000000e+00 
3.33333325e+00 5.00000000e+00 0.00000000e+00 
4.16666651e+00 5.00000000e+00 0.00000000e+00 
5.00000000e+00 5.00000000e+00 0.00000000e+00 
2.50000000e+00 5.33333349e+00 0.00000000e+00 
3.33333325e+00 5.33333349e+00 0.00000000e+00 
4.16666651e+00 5.33333349e+00 0.00000000e+00 
5.00000000e+00 5.33333349e+00 0.00000000e+00 
2.50000000e+00 5.66666651e+00 0.00000000e+00 
3.33333325e+00 5.66666651e+00 0.00000000e+00 
4.16666651e+00 5.66666651e+00 0.00000000e+00 
5.00000000e+00 5.66666651e+00 0.00000000e+00 
2.50000000e+00 6.00000000e+00 0.00000000e+00 
3.33333325e+00 6.00000000e+00 0.00000000e+00 
4.16666651e+00 6.00000000e+00 0.00000000e+00 
5.00000000e+00 6.00000000e+00 0.00000000e+00 

        </DataArray>
      </Points>
      <Cells>
        <DataArray type="Int32" Name="connectivity" format="ascii">
0 1 5 4
4 5 9 8
8 9 13 12
1 2 6 5
5 6 10 9
9 10 14 13
2 3 7 6
6 7 11 10
10 11 15 14

        </DataArray>
        <DataArray type="Int32" Name="offsets" format="ascii">
4 8 12 16 20 24 28 32 36 
        </DataArray>
        <DataArray type="UInt8" Name="types" format="ascii">
9 9 9 9 9 9 9 9 9 
        </DataArray>
      </Cells>
      <PointData>
        <DataArray type="Float64" Name="u">
          2.03440240e+02 1.98219967e+02 2.00742203e+02 1.95746755e+02 1.62539687e+02 1.61286274e+02 1.66300994e+02 1.68210015e+02 9.90321083e+01 1.06400900e+02 1.16775273e+02 1.27622447e+02 0.00000000e+00 5.28571951e+01 6.37659770e+01 8.68313657e+01 
        </DataArray>
        <DataArray type="Float64" Name="v">
          5.75953799e+00 1.19900508e+01 1.48807048e+01 1.66953247e+01 3.80963218e+00 1.23527369e+01 1.50202890e+01 1.43571300e+01 3.94083498e+00 1.20561685e+01 1.31905348e+01 1.23724530e+01 0.00000000e+00 9.55731247e-01 5.70089817e+00 1.03292898e+01 
        </DataArray>
        <DataArray type="Float64" Name="p">
          -5.51288624e+03 -5.72515270e+03 -5.93741916e+03 -6.14968562e+03 -6.15098827e+03 -6.09145914e+03 -6.03193001e+03 -5.97240087e+03 -6.78909031e+03 -6.45776558e+03 -6.12644086e+03 -5.79511613e+03 -7.42719234e+03 -6.82407202e+03 -6.22095170e+03 -5.61783138e+03 
        </DataArray>
      </PointData>
    </Piece>
    <Piece NumberOfPoints="16" NumberOfCells="9">
      <Points>
        <DataArray type="Float64" NumberOfComponents="3" format="ascii">
          2.50000000e+00 6.00000000e+00 0.00000000e+00 
3.33333325e+00 6.00000000e+00 0.00000000e+00 
4.16666651e+00 6.00000000e+00 0.00000000e+00 
5.00000000e+00 6.00000000e+00 0.00000000e+00 
2.50000000e+00 6.33333349e+00 0.00000000e+00 
3.33333325e+00 6.33333349e+00 0.00000000e+00 
4.16666651e+00 6.33333349e+00 0.00000000e+00 
5.00000000e+00 6.33333349e+00 0.00000000e+00 
2.50000000e+00 6.66666651e+00 0.00000000e+00 
3.33333325e+00 6.66666651e+00 0.00000000e+00 
4.16666651e+00 6.66666651e+00 0.00000000e+00 
5.00000000e+00 6.66666651e+00 0.00000000e+00 
2.50000000e+00 7.00000000e+00 0.00000000e+00 
3.33333325e+00 7.00000000e+00 0.00000000e+00 
4.16666651e+00 7.00000000e+00 0.00000000e+00 
5.00000000e+00 7.00000000e+00 0.00000000e+00 

        </DataArray>
      </Points>
      <Cells>
        <DataArray type="Int32" Name="connectivity" format="ascii">
0 1 5 4
4 5 9 8
8 9 13 12
1 2 6 5
5 6 10 9
9 10 14 13
2 3 7 6
6 7 11 10
10 11 15 14

        </DataArray>
        <DataArray type="Int32" Name="offsets" format="ascii">
4 8 12 16 20 24 28 32 36 
        </DataArray>
        <DataArray type="UInt8" Name="types" format="ascii">
9 9 9 9 9 9 9 9 9 
        </DataArray>
      </Cells>
      <PointData>
        <DataArray type="Float64" Name="u">
          0.00000000e+00 5.28571951e+01 6.37659770e+01 8.68313657e+01 0.00000000e+00 1.45749220e+01 2.67422022e+01 4.79600314e+01 0.00000000e+00 1.87288458e-01 6.92620798e+00 1.99357949e+01 0.00000000e+00 -4.91212529e+00 -3.40063890e+00 -1.47814149e-01 
        </DataArray>
        <DataArray type="Float64" Name="v">
          0.00000000e+00 9.55731247e-01 5.70089817e+00 1.03292898e+01 0.00000000e+00 -1.24277828e+01 -3.82089025e+00 6.15549554e+00 0.00000000e+00 -1.69084790e+01 -8.31006386e+00 1.77430544e+00 0.00000000e+00 -1.58486471e+01 -1.16175038e+01 -3.45078139e+00 
        </DataArray>
        <DataArray type="Float64" Name="p">
          -7.29492780e+03 -6.78446256e+03 -6.27399732e+03 -5.76353207e+03 -6.97956297e+03 -6.63915431e+03 -6.29874564e+03 -5.95833697e+03 -6.66419815e+03 -6.49384605e+03 -6.32349396e+03 -6.15314187e+03 -6.34883332e+03 -6.34853780e+03 -6.34824229e+03 -6.34794677e+03 
        </DataArray>
      </PointData>
    </Piece>
    <Piece NumberOfPoints="16" NumberOfCells="9">
      <Points>
        <DataArray type="Float64" NumberOfComponents="3" format="ascii">
          2.50000000e+00 7.00000000e+00 0.00000000e+00 
3.33333325e+00 7.00000000e+00 0.00000000e+00 
4.16666651e+00 7.00000000e+00 0.00000000e+00 
5.00000000e+00 7.00000000e+00 0.00000000e+00 
2.50000000e+00 7.33333349e+00 0.00000000e+00 
3.33333325e+00 7.33333349e+00 0.00000000e+00 
4.16666651e+00 7.33333349e+00 0.00000000e+00 
5.00000000e+00 7.33333349e+00 0.00000000e+00 
2.50000000e+00 7.66666651e+00 0.00000000e+00 
3.33333325e+00 7.66666651e+00 0.00000000e+00 
4.16666651e+00 7.66666651e+00 0.00000000e+00 
5.00000000e+00 7.66666651e+00 0.00000000e+00 
2.50000000e+00 8.00000000e+00 0.00000000e+00 
3.33333325e+00 8.00000000e+00 0.00000000e+00 
4.16666651e+00 8.00000000e+00 0.00000000e+00 
5.00000000e+00 8.00000000e+00 0.00000000e+00 

        </DataArray>
      </Points>
      <Cells>
        <DataArray type="Int32" Name="connectivity" format="ascii">
0 1 5 4
4 5 9 8
8 9 13 12
1 2 6 5
5 6 10 9
9 10 14 13
2 3 7 6
6 7 11 10
10 11 15 14

        </DataArray>
        <DataArray type="Int32" Name="offsets" format="ascii">
4 8 12 16 20 24 28 32 36 
        </DataArray>
        <DataArray type="UInt8" Name="types" format="ascii">
9 9 9 9 9 9 9 9 9 
        </DataArray>
      </Cells>
      <PointData>
        <DataArray type="Float64" Name="u">
          0.00000000e+00 -4.91212529e+00 -3.40063890e+00 -1.47814149e-01 0.00000000e+00 -7.13705704e+00 -9.65687429e+00 -1.21434875e+01 0.00000000e+00 -7.71045638e+00 -1.24324131e+01 -1.85736646e+01 0.00000000e+00 -7.15144576e+00 -1.23975393e+01 -2.00775411e+01 
        </DataArray>
        <DataArray type="Float64" Name="v">
          0.00000000e+00 -1.58486471e+01 -1.16175038e+01 -3.45078139e+00 0.00000000e+00 -1.30406383e+01 -1.10188737e+01 -5.39938175e+00 0.00000000e+00 -1.01222354e+01 -9.11516804e+00 -5.42532346e+00 0.00000000e+00 -6.19152798e+00 -6.05752791e+00 -4.15134187e+00 
        </DataArray>
        <DataArray type="Float64" Name="p">
          -6.39290401e+03 -6.33774878e+03 -6.28259356e+03 -6.22743834e+03 -6.31146563e+03 -6.26182591e+03 -6.21218619e+03 -6.16254647e+03 -6.23002725e+03 -6.18590304e+03 -6.14177882e+03 -6.09765460e+03 -6.14858888e+03 -6.10998016e+03 -6.07137145e+03 -6.03276274e+03 
        </DataArray>
      </PointData>
    </Piece>
    <Piece NumberOfPoints="16" NumberOfCells="9">
      <Points>
        <DataArray type="Float64" NumberOfComponents="3" format="ascii">
          2.50000000e+00 8.00000000e+00 0.00000000e+00 
3.33333325e+00 8.00000000e+00 0.00000000e+00 
4.16666651e+00 8.00000000e+00 0.00000000e+00 
5.00000000e+00 8.00000000e+00 0.00000000e+00 
2.50000000e+00 8.33333302e+00 0.00000000e+00 
3.33333325e+00 8.33333302e+00 0.00000000e+00 
4.16666651e+00 8.33333302e+00 0.00000000e+00 
5.00000000e+00 8.33333302e+00 0.00000000e+00 
2.50000000e+00 8.66666698e+00 0.00000000e+00 
3.33333325e+00 8.66666698e+00 0.00000000e+00 
4.16666651e+00 8.66666698e+00 0.00000000e+00 
5.00000000e+00 8.66666698e+00 0.00000000e+00 
2.50000000e+00 9.00000000e+00 0.00000000e+00 
3.33333325e+00 9.00000000e+00 0.00000000e+00 
4.16666651e+00 9.00000000e+00 0.00000000e+00 
5.00000000e+00 9.00000000e+00 0.00000000e+00 

        </DataArray>
      </Points>
      <Cells>
        <DataArray type="Int32" Name="connectivity" format="ascii">
0 1 5 4
4 5 9 8
8 9 13 12
1 2 6 5
5 6 10 9
9 10 14 13
2 3 7 6
6 7 11 10
10 11 15 14

        </DataArray>
        <DataArray type="Int32" Name="offsets" format="ascii">
4 8 12 16 20 24 28 32 36 
        </DataArray>
        <DataArray type="UInt8" Name="types" format="ascii">
9 9 9 9 9 9 9 9 9 
        </DataArray>
      </Cells>
      <PointData>
        <DataArray type="Float64" Name="u">
          0.00000000e+00 -7.15144576e+00 -1.23975393e+01 -2.00775411e+01 0.00000000e+00 -5.65070692e+00 -9.95039569e+00 -1.72019524e+01 0.00000000e+00 -3.25398549e+00 -5.59610011e+00 -1.01876252e+01 0.00000000e+00 0.00000000e+00 0.00000000e+00 0.00000000e+00 
        </DataArray>
        <DataArray type="Float64" Name="v">
          0.00000000e+00 -6.19152798e+00 -6.05752791e+00 -4.15134187e+00 0.00000000e+00 -2.83992888e+00 -2.90800766e+00 -2.13399695e+00 0.00000000e+00 -9.73195862e-01 -1.05356233e+00 -8.54124944e-01 0.00000000e+00 0.00000000e+00 0.00000000e+00 0.00000000e+00 
        </DataArray>
        <DataArray type="Float64" Name="p">
          -6.16215811e+03 -6.11351271e+03 -6.06486731e+03 -6.01622191e+03 -6.17371714e+03 -6.12588926e+03 -6.07806138e+03 -6.03023350e+03 -6.18527617e+03 -6.13826581e+03 -6.09125545e+03 -6.04424509e+03 -6.19683521e+03 -6.15064237e+03 -6.10444952e+03 -6.05825668e+03 
        </DataArray>
      </PointData>
    </Piece>
    <Piece NumberOfPoints="16" NumberOfCells="9">
      <Points>
        <DataArray type="Float64" NumberOfComponents="3" format="ascii">
          5.00000000e+00 0.00000000e+00 0.00000000e+00 
5.83333349e+00 0.00000000e+00 0.00000000e+00 
6.66666651e+00 0.00000000e+00 0.00000000e+00 
7.50000000e+00 0.00000000e+00 0.00000000e+00 
5.00000000e+00 3.33333343e-01 0.00000000e+00 
5.83333349e+00 3.33333343e-01 0.00000000e+00 
6.66666651e+00 3.33333343e-01 0.00000000e+00 
7.50000000e+00 3.33333343e-01 0.00000000e+00 
5.00000000e+00 6.66666687e-01 0.00000000e+00 
5.83333349e+00 6.66666687e-01 0.00000000e+00 
6.66666651e+00 6.66666687e-01 0.00000000e+00 
7.50000000e+00 6.66666687e-01 0.00000000e+00 
5.00000000e+00 1.00000000e+00 0.00000000e+00 
5.83333349e+00 1.00000000e+00 0.00000000e+00 
6.66666651e+00 1.00000000e+00 0.00000000e+00 
7.50000000e+00 1.00000000e+00 0.00000000e+00 

        </DataArray>
      </Points>
      <Cells>
        <DataArray type="Int32" Name="connectivity" format="ascii">
0 1 5 4
4 5 9 8
8 9 13 12
1 2 6 5
5 6 10 9
9 10 14 13
2 3 7 6
6 7 11 10
10 11 15 14

        </DataArray>
        <DataArray type="Int32" Name="offsets" format="ascii">
4 8 12 16 20 24 28 32 36 
        </DataArray>
        <DataArray type="UInt8" Name="types" format="ascii">
9 9 9 9 9 9 9 9 9 
        </DataArray>
      </Cells>
      <PointData>
        <DataArray type="Float64" Name="u">