<?xml version="1.0"?>
<VTKFile type="UnstructuredGrid" version="0.1" byte_order="LittleEndian">
  <UnstructuredGrid>
    <Piece NumberOfPoints="16" NumberOfCells="9">
      <Points>
        <DataArray type="Float64" NumberOfComponents="3" format="ascii">
          0.00000000e+00 3.00000000e+00 0.00000000e+00 
8.33333313e-01 3.00000000e+00 0.00000000e+00 
1.66666663e+00 3.00000000e+00 0.00000000e+00 
2.50000000e+00 3.00000000e+00 0.00000000e+00 
0.00000000e+00 3.33333325e+00 0.00000000e+00 
8.33333313e-01 3.33333325e+00 0.00000000e+00 
1.66666663e+00 3.33333325e+00 0.00000000e+00 
2.50000000e+00 3.33333325e+00 0.00000000e+00 
0.00000000e+00 3.66666675e+00 0.00000000e+00 
8.33333313e-01 3.66666675e+00 0.00000000e+00 
1.66666663e+00 3.66666675e+00 0.00000000e+00 
2.50000000e+00 3.66666675e+00 0.00000000e+00 
0.00000000e+00 4.00000000e+00 0.00000000e+00 
8.33333313e-01 4.00000000e+00 0.00000000e+00 
1.66666663e+00 4.00000000e+00 0.00000000e+00 
2.50000000e+00 4.00000000e+00 0.00000000e+00 

        </DataArray>
      </Points>
      <Cells>
        <DataArray type="Int32" Name="connectivity" format="ascii">
0 1 5 4
4 5 9 8
8 9 13 12
1 2 6 5
5 6 10 9
9 10 14 13
2 3 7 6
6 7 11 10
10 11 15 14

        </DataArray>
        <DataArray type="Int32" Name="offsets" format="ascii">
4 8 12 16 20 24 28 32 36 
        </DataArray>
        <DataArray type="UInt8" Name="types" format="ascii">
9 9 9 9 9 9 9 9 9 
        </DataArray>
      </Cells>
      <PointData>
        <DataArray type="Float64" Name="u">
          0.00000000e+00 0.00000000e+00 0.00000000e+00 0.00000000e+00 8.88888889e+01 9.10522737e+01 9.07357698e+01 9.68122829e+01 1.55555556e+02 1.56925755e+02 1.57695468e+02 1.60702659e+02 2.00000000e+02 2.00024742e+02 2.01455511e+02 2.02031607e+02 
        </DataArray>
        <DataArray type="Float64" Name="v">
          0.00000000e+00 0.00000000e+00 0.00000000e+00 0.00000000e+00 0.00000000e+00 -7.48718038e-01 -9.82317903e-01 -3.42691081e+00 0.00000000e+00 -7.11404786e-01 -1.49692234e+00 -3.12289462e+00 0.00000000e+00 -1.48115432e+00 -2.53211158e+00 -4.45744218e+00 
        </DataArray>
        <DataArray type="Float64" Name="p">
          -1.72066924e+03 -3.13751567e+03 -4.55436210e+03 -5.97120854e+03 -1.71427566e+03 -3.10796991e+03 -4.50166416e+03 -5.89535841e+03 -1.70788207e+03 -3.07842415e+03 -4.44896622e+03 -5.81950829e+03 -1.70148849e+03 -3.04887838e+03 -4.39626827e+03 -5.74365816e+03 
        </DataArray>
      </PointData>
    </Piece>
    <Piece NumberOfPoints="16" NumberOfCells="9">
      <Points>
        <DataArray type="Float64" NumberOfComponents="3" format="ascii">
          0.00000000e+00 4.00000000e+00 0.00000000e+00 
8.33333313e-01 4.00000000e+00 0.00000000e+00 
1.66666663e+00 4.00000000e+00 0.00000000e+00 
2.50000000e+00 4.00000000e+00 0.00000000e+00 
0.00000000e+00 4.33333349e+00 0.00000000e+00 
8.33333313e-01 4.33333349e+00 0.00000000e+00 
1.66666663e+00 4.33333349e+00 0.00000000e+00 
2.50000000e+00 4.33333349e+00 0.00000000e+00 
0.00000000e+00 4.66666651e+00 0.00000000e+00 
8.33333313e-01 4.66666651e+00 0.00000000e+00 
1.66666663e+00 4.66666651e+00 0.00000000e+00 
2.50000000e+00 4.66666651e+00 0.00000000e+00 
0.00000000e+00 5.00000000e+00 0.00000000e+00 
8.33333313e-01 5.00000000e+00 0.00000000e+00 
1.66666663e+00 5.00000000e+00 0.00000000e+00 
2.50000000e+00 5.00000000e+00 0.00000000e+00 

        </DataArray>
      </Points>
      <Cells>
        <DataArray type="Int32" Name="connectivity" format="ascii">
0 1 5 4
4 5 9 8
8 9 13 12
1 2 6 5
5 6 10 9
9 10 14 13
2 3 7 6
6 7 11 10
10 11 15 14

        </DataArray>
        <DataArray type="Int32" Name="offsets" format="ascii">
4 8 12 16 20 24 28 32 36 
        </DataArray>
        <DataArray type="UInt8" Name="types" format="ascii">
9 9 9 9 9 9 9 9 9 
        </DataArray>
      </Cells>
      <PointData>
        <DataArray type="Float64" Name="u">
          2.00000000e+02 2.00024742e+02 2.01455511e+02 2.02031607e+02 2.22222222e+02 2.21344893e+02 2.22592927e+02 2.21708226e+02 2.22222222e+02 2.20607402e+02 2.21757446e+02 2.19402932e+02 2.00000000e+02 1.97968074e+02 1.99223137e+02 1.95459619e+02 
        </DataArray>
        <DataArray type="Float64" Name="v">
          0.00000000e+00 -1.48115432e+00 -2.53211158e+00 -4.45744218e+00 0.00000000e+00 -1.43368133e+00 -2.80644070e+00 -3.98121558e+00 0.00000000e+00 -1.41182625e+00 -2.59620651e+00 -4.04880646e+00 0.00000000e+00 -8.69551218e-01 -2.04122045e+00 -2.76147210e+00 
        </DataArray>
        <DataArray type="Float64" Name="p">
          -1.66723312e+03 -3.01492844e+03 -4.36262375e+03 -5.71031907e+03 -1.54520698e+03 -2.89304255e+03 -4.24087813e+03 -5.58871370e+03 -1.42318084e+03 -2.77115667e+03 -4.11913250e+03 -5.46710833e+03 -1.30115470e+03 -2.64927079e+03 -3.99738687e+03 -5.34550296e+03 
        </DataArray>
      </PointData>
    </Piece>
    <Piece NumberOfPoints="16" NumberOfCells="9">
      <Points>
        <DataArray type="Float64" NumberOfComponents="3" format="ascii">
          0.00000000e+00 5.00000000e+00 0.00000000e+00 
8.33333313e-01 5.00000000e+00 0.00000000e+00 
1.66666663e+00 5.00000000e+00 0.00000000e+00 
2.50000000e+00 5.00000000e+00 0.00000000e+00 
0.00000000e+00 5.33333349e+00 0.00000000e+00 
8.33333313e-01 5.33333349e+00 0.00000000e+00 
1.66666663e+00 5.33333349e+00 0.00000000e+00 
2.50000000e+00 5.33333349e+00 0.00000000e+00 
0.00000000e+00 5.66666651e+00 0.00000000e+00 
8.33333313e-01 5.66666651e+00 0.00000000e+00 
1.66666663e+00 5.66666651e+00 0.00000000e+00 
2.50000000e+00 5.66666651e+00 0.00000000e+00 
0.00000000e+00 6.00000000e+00 0.00000000e+00 
8.33333313e-01 6.00000000e+00 0.00000000e+00 
1.66666663e+00 6.00000000e+00 0.00000000e+00 
2.50000000e+00 6.00000000e+00 0.00000000e+00 

        </DataArray>
      </Points>
      <Cells>
        <DataArray type="Int32" Name="connectivity" format="ascii">
0 1 5 4
4 5 9 8
8 9 13 12
1 2 6 5
5 6 10 9
9 10 14 13
2 3 7 6
6 7 11 10
10 11 15 14

        </DataArray>
        <DataArray type="Int32" Name="offsets" format="ascii">
4 8 12 16 20 24 28 32 36 
        </DataArray>
        <DataArray type="UInt8" Name="types" format="ascii">
9 9 9 9 9 9 9 9 9 
        </DataArray>
      </Cells>
      <PointData>
        <DataArray type="Float64" Name="u">
          2.00000000e+02 1.97968074e+02 1.99223137e+02 1.95459619e+02 1.55555556e+02 1.53850195e+02 1.54801322e+02 1.50912399e+02 8.88888889e+01 8.79473881e+01 8.82415173e+01 8.54673498e+01 0.00000000e+00 0.00000000e+00 0.00000000e+00 0.00000000e+00 
        </DataArray>
        <DataArray type="Float64" Name="v">
          0.00000000e+00 -8.69551218e-01 -2.04122045e+00 -2.76147210e+00 0.00000000e+00 -2.85629711e-01 -9.84593499e-01 -1.35944142e+00 0.00000000e+00 -2.51478925e-01 -8.76831754e-01 9.80208577e-03 0.00000000e+00 0.00000000e+00 0.00000000e+00 0.00000000e+00 
        </DataArray>
        <DataArray type="Float64" Name="p">
          -1.31066272e+03 -2.64304423e+03 -3.97542574e+03 -5.30780725e+03 -1.28478598e+03 -2.61989576e+03 -3.95500554e+03 -5.29011533e+03 -1.25890924e+03 -2.59674729e+03 -3.93458535e+03 -5.27242341e+03 -1.23303250e+03 -2.57359883e+03 -3.91416516e+03 -5.25473148e+03 
        </DataArray>
      </PointData>
    </Piece>
    <Piece NumberOfPoints="16" NumberOfCells="9">
      <Points>
        <DataArray type="Float64" NumberOfComponents="3" format="ascii">
          2.50000000e+00 0.00000000e+00 0.00000000e+00 
3.33333325e+00 0.00000000e+00 0.00000000e+00 
4.16666651e+00 0.00000000e+00 0.00000000e+00 
5.00000000e+00 0.00000000e+00 0.00000000e+00 
2.50000000e+00 3.33333343e-01 0.00000000e+00 
3.33333325e+00 3.33333343e-01 0.00000000e+00 
4.16666651e+00 3.33333343e-01 0.00000000e+00 
5.00000000e+00 3.33333343e-01 0.00000000e+00 
2.50000000e+00 6.66666687e-01 0.00000000e+00 
3.33333325e+00 6.66666687e-01 0.00000000e+00 
4.16666651e+00 6.66666687e-01 0.00000000e+00 
5.00000000e+00 6.66666687e-01 0.00000000e+00 
2.50000000e+00 1.00000000e+00 0.00000000e+00 
3.33333325e+00 1.00000000e+00 0.00000000e+00 
4.16666651e+00 1.00000000e+00 0.00000000e+00 
5.00000000e+00 1.00000000e+00 0.00000000e+00 

        </DataArray>
      </Points>
      <Cells>
        <DataArray type="Int32" Name="connectivity" format="ascii">
0 1 5 4
4 5 9 8
8 9 13 12
1 2 6 5
5 6 10 9
9 10 14 13
2 3 7 6
6 7 11 10
10 11 15 14

        </DataArray>
        <DataArray type="Int32" Name="offsets" format="ascii">
4 8 12 16 20 24 28 32 36 
        </DataArray>
        <DataArray type="UInt8" Name="types" format="ascii">
9 9 9 9 9 9 9 9 9 
        </DataArray>
      </Cells>
      <PointData>
        <DataArray type="Float64" Name="u">
          0.00000000e+00 0.00000000e+00 0.00000000e+00 0.00000000e+00 0.00000000e+00 -3.38298954e+00 -5.64952777e+00 -1.02683923e+01 0.00000000e+00 -5.82056156e+00 -9.97519873e+00 -1.71160463e+01 0.00000000e+00 -7.33254205e+00 -1.23643755e+01 -1.99104547e+01 
        </DataArray>
        <DataArray type="Float64" Name="v">
          0.00000000e+00 0.00000000e+00 0.00000000e+00 0.00000000e+00 0.00000000e+00 9.95511141e-01 1.07392641e+00 7.92898160e-01 0.00000000e+00 2.89616562e+00 2.92468519e+00 2.00079700e+00 0.00000000e+00 6.29277356e+00 6.00751434e+00 3.92464445e+00 
        </DataArray>
        <DataArray type="Float64" Name="p">
          -5.80245079e+03 -5.74329778e+03 -5.68414477e+03 -5.62499176e+03 -5.78863759e+03 -5.72929942e+03 -5.66996126e+03 -5.61062309e+03 -5.77482439e+03 -5.71530107e+03 -5.65577775e+03 -5.59625443e+03 -5.76101119e+03 -5.70130272e+03 -5.64159424e+03 -5.58188577e+03 
        </DataArray>
      </PointData>
    </Piece>
    <Piece NumberOfPoints="16" NumberOfCells="9">
      <Points>
        <DataArray type="Float64" NumberOfComponents="3" format="ascii">
          2.50000000e+00 1.00000000e+00 0.00000000e+00 
3.33333325e+00 1.00000000e+00 0.00000000e+00 
4.16666651e+00 1.00000000e+00 0.00000000e+00 
5.00000000e+00 1.00000000e+00 0.00000000e+00 
2.50000000e+00 1.33333337e+00 0.00000000e+00 
3.33333325e+00 1.33333337e+00 0.00000000e+00 
4.16666651e+00 1.33333337e+00 0.00000000e+00 
5.00000000e+00 1.33333337e+00 0.00000000e+00 
2.50000000e+00 1.66666663e+00 0.00000000e+00 
3.33333325e+00 1.66666663e+00 0.00000000e+00 
4.16666651e+00 1.66666663e+00 0.00000000e+00 
5.00000000e+00 1.66666663e+00 0.00000000e+00 
2.50000000e+00 2.00000000e+00 0.00000000e+00 
3.33333325e+00 2.00000000e+00 0.00000000e+00 
4.16666651e+00 2.00000000e+00 0.00000000e+00 
5.00000000e+00 2.00000000e+00 0.00000000e+00 

        </DataArray>
      </Points>
      <Cells>
        <DataArray type="Int32" Name="connectivity" format="ascii">
0 1 5 4
4 5 9 8
8 9 13 12
1 2 6 5
5 6 10 9
9 10 14 13
2 3 7 6
6 7 11 10
10 11 15 14

        </DataArray>
        <DataArray type="Int32" Name="offsets" format="ascii">
4 8 12 16 20 24 28 32 36 
        </DataArray>
        <DataArray type="UInt8" Name="types" format="ascii">
9 9 9 9 9 9 9 9 9 
        </DataArray>
      </Cells>
      <PointData>
        <DataArray type="Float64" Name="u">
          0.00000000e+00 -7.33254205e+00 -1.23643755e+01 -1.99104547e+01 0.00000000e+00 -7.91035539e+00 -1.23878547e+01 -1.84756492e+01 0.00000000e+00 -7.33965547e+00 -9.64367290e+00 -1.22668347e+01 0.00000000e+00 -5.05426549e+00 -3.45219115e+00 -6.55027673e-01 
        </DataArray>
        <DataArray type="Float64" Name="v">
          0.00000000e+00 6.29277356e+00 6.00751434e+00 3.92464445e+00 0.00000000e+00 1.02650698e+01 8.99154791e+00 5.13843232e+00 0.00000000e+00 1.32135759e+01 1.08595851e+01 5.13189476e+00 0.00000000e+00 1.60616085e+01 1.14752744e+01 3.33203283e+00 
        </DataArray>
        <DataArray type="Float64" Name="p">
          -5.74574011e+03 -5.69703571e+03 -5.64833130e+03 -5.59962689e+03 -5.84164822e+03 -5.78193844e+03 -5.72222867e+03 -5.66251890e+03 -5.93755632e+03 -5.86684118e+03 -5.79612604e+03 -5.72541090e+03 -6.03346442e+03 -5.95174392e+03 -5.87002341e+03 -5.78830291e+03 
        </DataArray>
      </PointData>
    </Piece>
    <Piece NumberOfPoints="16" NumberOfCells="9">
      <Points>
        <DataArray type="Float64" NumberOfComponents="3" format="ascii">
          2.50000000e+00 2.00000000e+00 0.00000000e+00 
3.33333325e+00 2.00000000e+00 0.00000000e+00 
4.16666651e+00 2.00000000e+00 0.00000000e+00 
5.00000000e+00 2.00000000e+00 0.00000000e+00 
2.50000000e+00 2.33333325e+00 0.00000000e+00 
3.33333325e+00 2.33333325e+00 0.00000000e+00 
4.16666651e+00 2.33333325e+00 0.00000000e+00 
5.00000000e+00 2.33333325e+00 0.00000000e+00 
2.50000000e+00 2.66666675e+00 0.00000000e+00 
3.33333325e+00 2.66666675e+00 0.00000000e+00 
4.16666651e+00 2.66666675e+00 0.00000000e+00 
5.00000000e+00 2.66666675e+00 0.00000000e+00 
2.50000000e+00 3.00000000e+00 0.00000000e+00 
3.33333325e+00 3.00000000e+00 0.00000000e+00 
4.16666651e+00 3.00000000e+00 0.00000000e+00 
5.00000000e+00 3.00000000e+00 0.00000000e+00 

        </DataArray>
      </Points>
      <Cells>
        <DataArray type="Int32" Name="connectivity" format="ascii">
0 1 5 4
4 5 9 8
8 9 13 12
1 2 6 5
5 6 10 9
9 10 14 13
2 3 7 6
6 7 11 10
10 11 15 14

        </DataArray>
        <DataArray type="Int32" Name="offsets" format="ascii">
4 8 12 16 20 24 28 32 36 
        </DataArray>
        <DataArray type="UInt8" Name="types" format="ascii">
9 9 9 9 9 9 9 9 9 
        </DataArray>
      </Cells>
      <PointData>
        <DataArray type="Float64" Name="u">
          0.00000000e+00 -5.05426549e+00 -3.45219115e+00 -6.55027673e-01 0.00000000e+00 2.29505874e-01 6.82507546e+00 1.87363268e+01 0.00000000e+00 1.46934313e+01 2.61658111e+01 4.57151714e+01 0.00000000e+00 5.18641623e+01 6.12824878e+01 8.28176813e+01 
        </DataArray>
        <DataArray type="Float64" Name="v">
          0.00000000e+00 1.60616085e+01 1.14752744e+01 3.33203283e+00 0.00000000e+00 1.71169879e+01 8.41589301e+00 -1.39729763e+00 0.00000000e+00 1.26385639e+01 4.13823171e+00 -5.30643265e+00 0.00000000e+00 -4.91246693e-01 -4.69046920e+00 -8.71902975e+00 
        </DataArray>
        <DataArray type="Float64" Name="p">
          -5.98806504e+03 -5.96273838e+03 -5.93741172e+03 -5.91208505e+03 -6.34185020e+03 -6.13037516e+03 -5.91890012e+03 -5.70742508e+03 -6.69563535e+03 -6.29801194e+03 -5.90038852e+03 -5.50276511e+03 -7.04942051e+03 -6.46564872e+03 -5.88187693e+03 -5.29810513e+03 
        </DataArray>
      </PointData>
    </Piece>
    <Piece NumberOfPoints="16" NumberOfCells="9">
      <Points>
        <DataArray type="Float64" NumberOfComponents="3" format="ascii">
          2.50000000e+00 3.00000000e+00 0.00000000e+00 
3.33333325e+00 3.00000000e+00 0.00000000e+00 
4.16666651e+00 3.00000000e+00 0.00000000e+00 
5.00000000e+00 3.00000000e+00 0.00000000e+00 
2.50000000e+00 3.33333325e+00 0.00000000e+00 
3.33333325e+00 3.33333325e+00 0.00000000e+00 
4.16666651e+00 3.33333325e+00 0.00000000e+00 
5.00000000e+00 3.33333325e+00 0.00000000e+00 
2.50000000e+00 3.66666675e+00 0.00000000e+00 
3.33333325e+00 3.66666675e+00 0.00000000e+00 
4.16666651e+00 3.66666675e+00 0.00000000e+00 
5.00000000e+00 3.66666675e+00 0.00000000e+00 
2.50000000e+00 4.00000000e+00 0.00000000e+00 
3.33333325e+00 4.00000000e+00 0.00000000e+00 
4.16666651e+00 4.00000000e+00 0.00000000e+00 
5.00000000e+00 4.00000000e+00 0.00000000e+00 

        </DataArray>
      </Points>
      <Cells>
        <DataArray type="Int32" Name="connectivity" format="ascii">
0 1 5 4
4 5 9 8
8 9 13 12
1 2 6 5
5 6 10 9
9 10 14 13
2 3 7 6
6 7 11 10
10 11 15 14

        </DataArray>
        <DataArray type="Int32" Name="offsets" format="ascii">
4 8 12 16 20 24 28 32 36 
        </DataArray>
        <DataArray type="UInt8" Name="types" format="ascii">
9 9 9 9 9 9 9 9 9 
        </DataArray>
      </Cells>
      <PointData>
        <DataArray type="Float64" Name="u">
          0.00000000e+00 5.18641623e+01 6.12824878e+01 8.28176813e+01 9.68122829e+01 1.03582526e+02 1.12374887e+02 1.21753101e+02 1.60702659e+02 1.58191949e+02 1.61703951e+02 1.62123413e+02 2.02031607e+02 1.95936903e+02 1.97217972e+02 1.91092600e+02 
        </DataArray>
        <DataArray type="Float64" Name="v">
          0.00000000e+00 -4.91246693e-01 -4.69046920e+00 -8.71902975e+00 -3.42691081e+00 -1.09496041e+01 -1.12800807e+01 -9.83981202e+00 -3.12289462e+00 -1.13677918e+01 -1.31723169e+01 -1.14632565e+01 -4.45744218e+00 -1.02052670e+01 -1.22217022e+01 -1.29111830e+01 
        </DataArray>
        <DataArray type="Float64" Name="p">
          -7.15448076e+03 -6.47885064e+03 -5.80322051e+03 -5.12759039e+03 -6.51867610e+03 -6.12963491e+03 -5.74059373e+03 -5.35155255e+03 -5.88287143e+03 -5.78041919e+03 -5.67796695e+03 -5.57551471e+03 -5.24706677e+03 -5.43120347e+03 -5.61534017e+03 -5.79947687e+03 
        </DataArray>
      </PointData>
    </Piece>
    <Piece NumberOfPoints="16" NumberOfCells="9">
      <Points>
        <DataArray type="Float64" NumberOfComponents="3" format="ascii">
          2.50000000e+00 4.00000000e+00 0.00000000e+00 
3.33333325e+00 4.00000000e+00 0.00000000e+00 
4.16666651e+00 4.00000000e+00 0.00000000e+00 
5.00000000e+00 4.00000000e+00 0.00000000e+00 
2.50000000e+00 4.33333349e+00 0.00000000e+00 
3.33333325e+00 4.33333349e+00 0.00000000e+00 
4.16666651e+00 4.33333349e+00 0.00000000e+00 
5.00000000e+00 4.33333349e+00 0.00000000e+00 
2.50000000e+00 4.66666651e+00 0.00000000e+00 
3.33333325e+00 4.66666651e+00 0.00000000e+00 
4.16666651e+00 4.66666651e+00 0.00000000e+00 
5.00000000e+00 4.66666651e+00 0.00000000e+00 
2.50000000e+00 5.00000000e+00 0.00000000e+00 
3.33333325e+00 5.00000000e+00 0.00000000e+00 
4.16666651e+00 5.00000000e+00 0.00000000e+00 
5.00000000e+00 5.00000000e+00 0.00000000e+00 

        </DataArray>
      </Points>
      <Cells>
        <DataArray type="Int32" Name="connectivity" format="ascii">
0 1 5 4
4 5 9 8
8 9 13 12
1 2 6 5
5 6 10 9
9 10 14 13
2 3 7 6
6 7 11 10
10 11 15 14

        </DataArray>
        <DataArray type="Int32" Name="offsets" format="ascii">
4 8 12 16 20 24 28 32 36 
        </DataArray>
        <DataArray type="UInt8" Name="types" format="ascii">
9 9 9 9 9 9 9 9 9 
        </DataArray>
      </Cells>
      <PointData>
        <DataArray type="Float64" Name="u">
          2.02031607e+02 1.95936903e+02 1.97217972e+02 1.91092600e+02 2.21708226e+02 2.13910324e+02 2.12123823e+02 2.03578669e+02 2.19402932e+02 2.10651494e+02 2.07018284e+02 1.96694009e+02 1.95459619e+02 1.86911311e+02 1.82606747e+02 1.71984913e+02 
        </DataArray>
        <DataArray type="Float64" Name="v">
          -4.45744218e+00 -1.02052670e+01 -1.22217022e+01 -1.29111830e+01 -3.98121558e+00 -6.59420203e+00 -9.61073911e+00 -1.20729344e+01 -4.04880646e+00 -5.49979472e+00 -7.02359475e+00 -9.53849708e+00 -2.76147210e+00 -9.06667665e-01 -3.14321795e+00 -6.96674069e+00 
        </DataArray>
        <DataArray type="Float64" Name="p">
          -5.05399842e+03 -5.31075173e+03 -5.56750504e+03 -5.82425836e+03 -4.87610889e+03 -5.10606964e+03 -5.33603039e+03 -5.56599114e+03 -4.69821935e+03 -4.90138754e+03 -5.10455574e+03 -5.30772393e+03 -4.52032982e+03 -4.69670545e+03 -4.87308108e+03 -5.04945671e+03 
        </DataArray>
      </PointData>
    </Piece>
    <Piece NumberOfPoints="16" NumberOfCells="9">
      <Points>
        <DataArray type="Float64" NumberOfComponents="3" format="ascii">
          2.50000000e+00 5.00000000e+00 0.00000000e+00 
3.33333325e+00 5.00000000e+00 0.00000000e+00 
4.16666651e+00 5.00000000e+00 0.00000000e+00 
5.00000000e+00 5.00000000e+00 0.00000000e+00 
2.50000000e+00 5.33333349e+00 0.00000000e+00 
3.33333325e+00 5.33333349e+00 0.00000000e+00 
4.16666651e+00 5.33333349e+00 0.00000000e+00 
5.00000000e+00 5.33333349e+00 0.00000000e+00 
2.50000000e+00 5.66666651e+00 0.00000000e+00 
3.33333325e+00 5.66666651e+00 0.00000000e+00 
4.16666651e+00 5.66666651e+00 0.00000000e+00 
5.00000000e+00 5.66666651e+00 0.00000000e+00 
2.50000000e+00 6.00000000e+00 0.00000000e+00 
3.33333325e+00 6.00000000e+00 0.00000000e+00 
4.16666651e+00 6.00000000e+00 0.00000000e+00 
5.00000000e+00 6.00000000e+00 0.00000000e+00 

        </DataArray>
      </Points>
      <Cells>
        <DataArray type="Int32" Name="connectivity" format="ascii">
0 1 5 4
4 5 9 8
8 9 13 12
1 2 6 5
5 6 10 9
9 10 14 13
2 3 7 6
6 7 11 10
10 11 15 14

        </DataArray>
        <DataArray type="Int32" Name="offsets" format="ascii">
4 8 12 16 20 24 28 32 36 
        </DataArray>
        <DataArray type="UInt8" Name="types" format="ascii">
9 9 9 9 9 9 9 9 9 
        </DataArray>
      </Cells>
      <PointData>
        <DataArray type="Float64" Name="u">
          1.95459619e+02 1.86911311e+02 1.82606747e+02 1.71984913e+02 1.50912399e+02 1.44153294e+02 1.40298552e+02 1.33817304e+02 8.54673498e+01 8.85710536e+01 8.91992650e+01 9.11036539e+01 0.00000000e+00 4.13489092e+01 4.35768088e+01 5.66763535e+01 
        </DataArray>
        <DataArray type="Float64" Name="v">
          -2.76147210e+00 -9.06667665e-01 -3.14321795e+00 -6.96674069e+00 -1.35944142e+00 2.76242438e+00 9.73129767e-01 -4.14052754e+00 9.80208577e-03 2.72322125e+00 -1.72408822e-01 -3.48466852e+00 0.00000000e+00 -4.37659249e+00 -2.52334930e+00 -7.08153955e-01 
        </DataArray>
        <DataArray type="Float64" Name="p">
          -4.65963408e+03 -4.74038933e+03 -4.82114459e+03 -4.90189984e+03 -5.02955229e+03 -4.88886841e+03 -4.74818454e+03 -4.60750066e+03 -5.39947050e+03 -5.03734749e+03 -4.67522448e+03 -4.31310147e+03 -5.76938871e+03 -5.18582657e+03 -4.60226443e+03 -4.01870229e+03 
        </DataArray>
      </PointData>
    </Piece>
    <Piece NumberOfPoints="16" NumberOfCells="9">
      <Points>
        <DataArray type="Float64" NumberOfComponents="3" format="ascii">
          2.50000000e+00 6.00000000e+00 0.00000000e+00 
3.33333325e+00 6.00000000e+00 0.00000000e+00 
4.16666651e+00 6.00000000e+00 0.00000000e+00 
5.00000000e+00 6.00000000e+00 0.00000000e+00 
2.50000000e+00 6.33333349e+00 0.00000000e+00 
3.33333325e+00 6.33333349e+00 0.00000000e+00 
4.16666651e+00 6.33333349e+00 0.00000000e+00 
5.00000000e+00 6.33333349e+00 0.00000000e+00 
2.50000000e+00 6.66666651e+00 0.00000000e+00 
3.33333325e+00 6.66666651e+00 0.00000000e+00 
4.16666651e+00 6.66666651e+00 0.00000000e+00 
5.00000000e+00 6.66666651e+00 0.00000000e+00 
2.50000000e+00 7.00000000e+00 0.00000000e+00 
3.33333325e+00 7.00000000e+00 0.00000000e+00 
4.16666651e+00 7.00000000e+00 0.00000000e+00 
5.00000000e+00 7.00000000e+00 0.00000000e+00 

        </DataArray>
      </Points>
      <Cells>
        <DataArray type="Int32" Name="connectivity" format="ascii">
0 1 5 4
4 5 9 8
8 9 13 12
1 2 6 5
5 6 10 9
9 10 14 13
2 3 7 6
6 7 11 10
10 11 15 14

        </DataArray>
        <DataArray type="Int32" Name="offsets" format="ascii">
4 8 12 16 20 24 28 32 36 
        </DataArray>
        <DataArray type="UInt8" Name="types" format="ascii">
9 9 9 9 9 9 9 9 9 
        </DataArray>
      </Cells>
      <PointData>
        <DataArray type="Float64" Name="u">
          0.00000000e+00 4.13489092e+01 4.35768088e+01 5.66763535e+01 0.00000000e+00 1.01830131e+01 1.58329211e+01 2.66391460e+01 0.00000000e+00 -1.47023624e+00 1.14671631e+00 6.28995044e+00 0.00000000e+00 -5.49595072e+00 -6.27992666e+00 -7.18008425e+00 
        </DataArray>
        <DataArray type="Float64" Name="v">
          0.00000000e+00 -4.37659249e+00 -2.52334930e+00 -7.08153955e-01 0.00000000e+00 -1.38207961e+01 -7.70027671e+00 -1.39956224e+00 0.00000000e+00 -1.63803886e+01 -9.53627411e+00 -2.92680337e+00 0.00000000e+00 -1.45812564e+01 -1.06756297e+01 -4.95074427e+00 
        </DataArray>
        <DataArray type="Float64" Name="p">
          -5.73294933e+03 -5.24066058e+03 -4.74837183e+03 -4.25608308e+03 -5.42478581e+03 -5.08305908e+03 -4.74133235e+03 -4.39960563e+03 -5.11662228e+03 -4.92545757e+03 -4.73429287e+03 -4.54312817e+03 -4.80845875e+03 -4.76785607e+03 -4.72725339e+03 -4.68665071e+03 
        </DataArray>
      </PointData>
    </Piece>
    <Piece NumberOfPoints="16" NumberOfCells="9">
      <Points>
        <DataArray type="Float64" NumberOfComponents="3" format="ascii">
          2.50000000e+00 7.00000000e+00 0.00000000e+00 
3.33333325e+00 7.00000000e+00 0.00000000e+00 
4.16666651e+00 7.00000000e+00 0.00000000e+00 
5.00000000e+00 7.00000000e+00 0.00000000e+00 
2.50000000e+00 7.33333349e+00 0.00000000e+00 
3.33333325e+00 7.33333349e+00 0.00000000e+00 
4.16666651e+00 7.33333349e+00 0.00000000e+00 
5.00000000e+00 7.33333349e+00 0.00000000e+00 
2.50000000e+00 7.66666651e+00 0.00000000e+00 
3.33333325e+00 7.66666651e+00 0.00000000e+00 
4.16666651e+00 7.66666651e+00 0.00000000e+00 
5.00000000e+00 7.66666651e+00 0.00000000e+00 
2.50000000e+00 8.00000000e+00 0.00000000e+00 
3.33333325e+00 8.00000000e+00 0.00000000e+00 
4.16666651e+00 8.00000000e+00 0.00000000e+00 
5.00000000e+00 8.00000000e+00 0.00000000e+00 

        </DataArray>
      </Points>
      <Cells>
        <DataArray type="Int32" Name="connectivity" format="ascii">
0 1 5 4
4 5 9 8
8 9 13 12
1 2 6 5
5 6 10 9
9 10 14 13
2 3 7 6
6 7 11 10
10 11 15 14

        </DataArray>
        <DataArray type="Int32" Name="offsets" format="ascii">
4 8 12 16 20 24 28 32 36 
        </DataArray>
        <DataArray type="UInt8" Name="types" format="ascii">
9 9 9 9 9 9 9 9 9 
        </DataArray>
      </Cells>
      <PointData>
        <DataArray type="Float64" Name="u">
          0.00000000e+00 -5.49595072e+00 -6.27992666e+00 -7.18008425e+00 0.00000000e+00 -6.94168073e+00 -1.02596560e+01 -1.43081620e+01 0.00000000e+00 -6.97393804e+00 -1.14892709e+01 -1.73197022e+01 0.00000000e+00 -6.14890779e+00 -1.06780365e+01 -1.69505636e+01 
        </DataArray>
        <DataArray type="Float64" Name="v">
          0.00000000e+00 -1.45812564e+01 -1.06756297e+01 -4.95074427e+00 0.00000000e+00 -1.15087973e+01 -9.33368873e+00 -5.16334721e+00 0.00000000e+00 -8.71189233e+00 -7.41783122e+00 -4.46955506e+00 0.00000000e+00 -5.19645840e+00 -4.80983670e+00 -3.09682129e+00 
        </DataArray>
        <DataArray type="Float64" Name="p">
          -4.83932393e+03 -4.75814640e+03 -4.67696886e+03 -4.59579133e+03 -4.75404310e+03 -4.68939136e+03 -4.62473962e+03 -4.56008788e+03 -4.66876227e+03 -4.62063632e+03 -4.57251037e+03 -4.52438442e+03 -4.58348144e+03 -4.55188128e+03 -4.52028113e+03 -4.48868097e+03 
        </DataArray>
      </PointData>
    </Piece>
    <Piece NumberOfPoints="16" NumberOfCells="9">
      <Points>
        <DataArray type="Float64" NumberOfComponents="3" format="ascii">
          2.50000000e+00 8.00000000e+00 0.00000000e+00 
3.33333325e+00 8.00000000e+00 0.00000000e+00 
4.16666651e+00 8.00000000e+00 0.00000000e+00 
5.00000000e+00 8.00000000e+00 0.00000000e+00 
2.50000000e+00 8.33333302e+00 0.00000000e+00 
3.33333325e+00 8.33333302e+00 0.00000000e+00 
4.16666651e+00 8.33333302e+00 0.00000000e+00 
5.00000000e+00 8.33333302e+00 0.00000000e+00 
2.50000000e+00 8.66666698e+00 0.00000000e+00 
3.33333325e+00 8.66666698e+00 0.00000000e+00 
4.16666651e+00 8.66666698e+00 0.00000000e+00 
5.00000000e+00 8.66666698e+00 0.00000000e+00 
2.50000000e+00 9.00000000e+00 0.00000000e+00 
3.33333325e+00 9.00000000e+00 0.00000000e+00 
4.16666651e+00 9.00000000e+00 0.00000000e+00 
5.00000000e+00 9.00000000e+00 0.00000000e+00 

        </DataArray>
      </Points>
      <Cells>
        <DataArray type="Int32" Name="connectivity" format="ascii">
0 1 5 4
4 5 9 8
8 9 13 12
1 2 6 5
5 6 10 9
9 10 14 13
2 3 7 6
6 7 11 10
10 11 15 14

        </DataArray>
        <DataArray type="Int32" Name="offsets" format="ascii">
4 8 12 16 20 24 28 32 36 
        </DataArray>
        <DataArray type="UInt8" Name="types" format="ascii">
9 9 9 9 9 9 9 9 9 
        </DataArray>
      </Cells>
      <PointData>
        <DataArray type="Float64" Name="u">
          0.00000000e+00 -6.14890779e+00 -1.06780365e+01 -1.69505636e+01 0.00000000e+00 -4.71528595e+00 -8.27232190e+00 -1.38211587e+01 0.00000000e+00 -2.67594987e+00 -4.57379053e+00 -8.12507562e+00 0.00000000e+00 0.00000000e+00 0.00000000e+00 0.00000000e+00 
        </DataArray>
        <DataArray type="Float64" Name="v">
          0.00000000e+00 -5.19645840e+00 -4.80983670e+00 -3.09682129e+00 0.00000000e+00 -2.35782474e+00 -2.34303532e+00 -1.49891922e+00 0.00000000e+00 -7.84712281e-01 -8.42169348e-01 -5.35768802e-01 0.00000000e+00 0.00000000e+00 0.00000000e+00 0.00000000e+00 
        </DataArray>
        <DataArray type="Float64" Name="p">
          -4.59904035e+03 -4.55927419e+03 -4.51950803e+03 -4.47974187e+03 -4.61169290e+03 -4.57183985e+03 -4.53198680e+03 -4.49213375e+03 -4.62434546e+03 -4.58440552e+03 -4.54446557e+03 -4.50452563e+03 -4.63699801e+03 -4.59697118e+03 -4.55694435e+03 -4.51691751e+03 
        </DataArray>
      </PointData>
    </Piece>
    <Piece NumberOfPoints="16" NumberOfCells="9">
      <Points>
        <DataArray type="Float64" NumberOfComponents="3" format="ascii">
          5.00000000e+00 0.00000000e+00 0.00000000e+00 
5.83333349e+00 0.00000000e+00 0.00000000e+00 
6.66666651e+00 0.00000000e+00 0.00000000e+00 
7.50000000e+00 0.00000000e+00 0.00000000e+00 
5.00000000e+00 3.33333343e-01 0.00000000e+00 
5.83333349e+00 3.33333343e-01 0.00000000e+00 
6.66666651e+00 3.33333343e-01 0.00000000e+00 
7.50000000e+00 3.33333343e-01 0.00000000e+00 
5.00000000e+00 6.66666687e-01 0.00000000e+00 
5.83333349e+00 6.66666687e-01 0.00000000e+00 
6.66666651e+00 6.66666687e-01 0.00000000e+00 
7.50000000e+00 6.66666687e-01 0.00000000e+00 
5.00000000e+00 1.00000000e+00 0.00000000e+00 
5.83333349e+00 1.00000000e+00 0.00000000e+00 
6.66666651e+00 1.00000000e+00 0.00000000e+00 
7.50000000e+00 1.00000000e+00 0.00000000e+00 

        </DataArray>
      </Points>
      <Cells>
        <DataArray type="Int32" Name="connectivity" format="ascii">
0 1 5 4
4 5 9 8
8 9 13 12
1 2 6 5
5 6 10 9
9 10 14 13
2 3 7 6
6 7 11 10
10 11 15 14

        </DataArray>
        <DataArray type="Int32" Name="offsets" format="ascii">
4 8 12 16 20 24 28 32 36 
        </DataArray>
        <DataArray type="UInt8" Name="types" format="ascii">
9 9 9 9 9 9 9 9 9 
        </DataArray>
      </Cells>
      <PointData>
        <DataArray type="Float64" Name="u">