<?xml version="1.0"?>
<VTKFile type="UnstructuredGrid" version="0.1" byte_order="LittleEndian">
  <UnstructuredGrid>
    <Piece NumberOfPoints="16" NumberOfCells="9">
      <Points>
        <DataArray type="Float64" NumberOfComponents="3" format="ascii">
          0.00000000e+00 3.00000000e+00 0.00000000e+00 
8.33333313e-01 3.00000000e+00 0.00000000e+00 
1.66666663e+00 3.00000000e+00 0.00000000e+00 
2.50000000e+00 3.00000000e+00 0.00000000e+00 
0.00000000e+00 3.33333325e+00 0.00000000e+00 
8.33333313e-01 3.33333325e+00 0.00000000e+00 
1.66666663e+00 3.33333325e+00 0.00000000e+00 
2.50000000e+00 3.33333325e+00 0.00000000e+00 
0.00000000e+00 3.66666675e+00 0.00000000e+00 
8.33333313e-01 3.66666675e+00 0.00000000e+00 
1.66666663e+00 3.66666675e+00 0.00000000e+00 
2.50000000e+00 3.66666675e+00 0.00000000e+00 
0.00000000e+00 4.00000000e+00 0.00000000e+00 
8.33333313e-01 4.00000000e+00 0.00000000e+00 
1.66666663e+00 4.00000000e+00 0.00000000e+00 
2.50000000e+00 4.00000000e+00 0.00000000e+00 

        </DataArray>
      </Points>
      <Cells>
        <DataArray type="Int32" Name="connectivity" format="ascii">
0 1 5 4
4 5 9 8
8 9 13 12
1 2 6 5
5 6 10 9
9 10 14 13
2 3 7 6
6 7 11 10
10 11 15 14

        </DataArray>
        <DataArray type="Int32" Name="offsets" format="ascii">
4 8 12 16 20 24 28 32 36 
        </DataArray>
        <DataArray type="UInt8" Name="types" format="ascii">
9 9 9 9 9 9 9 9 9 
        </DataArray>
      </Cells>
      <PointData>
        <DataArray type="Float64" Name="u">
          0.00000000e+00 0.00000000e+00 0.00000000e+00 0.00000000e+00 8.88888889e+01 9.15476704e+01 9.10677347e+01 9.83512770e+01 1.55555556e+02 1.57391419e+02 1.58030836e+02 1.61994848e+02 2.00000000e+02 2.00376068e+02 2.01691033e+02 2.03010574e+02 
        </DataArray>
        <DataArray type="Float64" Name="v">
          0.00000000e+00 0.00000000e+00 0.00000000e+00 0.00000000e+00 0.00000000e+00 -9.16844594e-01 -1.27396948e+00 -3.79263432e+00 0.00000000e+00 -8.36657985e-01 -1.84073917e+00 -3.61368110e+00 0.00000000e+00 -1.81328127e+00 -3.15698902e+00 -5.37543533e+00 
        </DataArray>
        <DataArray type="Float64" Name="p">
          -2.17303622e+03 -3.49168600e+03 -4.81033577e+03 -6.12898555e+03 -2.15857244e+03 -3.45387124e+03 -4.74917003e+03 -6.04446883e+03 -2.14410866e+03 -3.41605648e+03 -4.68800430e+03 -5.95995211e+03 -2.12964488e+03 -3.37824172e+03 -4.62683856e+03 -5.87543539e+03 
        </DataArray>
      </PointData>
    </Piece>
    <Piece NumberOfPoints="16" NumberOfCells="9">
      <Points>
        <DataArray type="Float64" NumberOfComponents="3" format="ascii">
          0.00000000e+00 4.00000000e+00 0.00000000e+00 
8.33333313e-01 4.00000000e+00 0.00000000e+00 
1.66666663e+00 4.00000000e+00 0.00000000e+00 
2.50000000e+00 4.00000000e+00 0.00000000e+00 
0.00000000e+00 4.33333349e+00 0.00000000e+00 
8.33333313e-01 4.33333349e+00 0.00000000e+00 
1.66666663e+00 4.33333349e+00 0.00000000e+00 
2.50000000e+00 4.33333349e+00 0.00000000e+00 
0.00000000e+00 4.66666651e+00 0.00000000e+00 
8.33333313e-01 4.66666651e+00 0.00000000e+00 
1.66666663e+00 4.66666651e+00 0.00000000e+00 
2.50000000e+00 4.66666651e+00 0.00000000e+00 
0.00000000e+00 5.00000000e+00 0.00000000e+00 
8.33333313e-01 5.00000000e+00 0.00000000e+00 
1.66666663e+00 5.00000000e+00 0.00000000e+00 
2.50000000e+00 5.00000000e+00 0.00000000e+00 

        </DataArray>
      </Points>
      <Cells>
        <DataArray type="Int32" Name="connectivity" format="ascii">
0 1 5 4
4 5 9 8
8 9 13 12
1 2 6 5
5 6 10 9
9 10 14 13
2 3 7 6
6 7 11 10
10 11 15 14

        </DataArray>
        <DataArray type="Int32" Name="offsets" format="ascii">
4 8 12 16 20 24 28 32 36 
        </DataArray>
        <DataArray type="UInt8" Name="types" format="ascii">
9 9 9 9 9 9 9 9 9 
        </DataArray>
      </Cells>
      <PointData>
        <DataArray type="Float64" Name="u">
          2.00000000e+02 2.00376068e+02 2.01691033e+02 2.03010574e+02 2.22222222e+02 2.21546007e+02 2.22672592e+02 2.22116611e+02 2.22222222e+02 2.20604095e+02 2.21615077e+02 2.19196458e+02 2.00000000e+02 1.97754289e+02 1.98870436e+02 1.94659689e+02 
        </DataArray>
        <DataArray type="Float64" Name="v">
          0.00000000e+00 -1.81328127e+00 -3.15698902e+00 -5.37543533e+00 0.00000000e+00 -1.84053376e+00 -3.55996676e+00 -5.05401760e+00 0.00000000e+00 -1.82890210e+00 -3.36167721e+00 -5.12516111e+00 0.00000000e+00 -1.22811365e+00 -2.70791475e+00 -3.78861590e+00 
        </DataArray>
        <DataArray type="Float64" Name="p">
          -2.09270534e+03 -3.34062372e+03 -4.58854209e+03 -5.83646047e+03 -1.93355133e+03 -3.18484911e+03 -4.43614689e+03 -5.68744468e+03 -1.77439731e+03 -3.02907450e+03 -4.28375170e+03 -5.53842889e+03 -1.61524330e+03 -2.87329990e+03 -4.13135650e+03 -5.38941310e+03 
        </DataArray>
      </PointData>
    </Piece>
    <Piece NumberOfPoints="16" NumberOfCells="9">
      <Points>
        <DataArray type="Float64" NumberOfComponents="3" format="ascii">
          0.00000000e+00 5.00000000e+00 0.00000000e+00 
8.33333313e-01 5.00000000e+00 0.00000000e+00 
1.66666663e+00 5.00000000e+00 0.00000000e+00 
2.50000000e+00 5.00000000e+00 0.00000000e+00 
0.00000000e+00 5.33333349e+00 0.00000000e+00 
8.33333313e-01 5.33333349e+00 0.00000000e+00 
1.66666663e+00 5.33333349e+00 0.00000000e+00 
2.50000000e+00 5.33333349e+00 0.00000000e+00 
0.00000000e+00 5.66666651e+00 0.00000000e+00 
8.33333313e-01 5.66666651e+00 0.00000000e+00 
1.66666663e+00 5.66666651e+00 0.00000000e+00 
2.50000000e+00 5.66666651e+00 0.00000000e+00 
0.00000000e+00 6.00000000e+00 0.00000000e+00 
8.33333313e-01 6.00000000e+00 0.00000000e+00 
1.66666663e+00 6.00000000e+00 0.00000000e+00 
2.50000000e+00 6.00000000e+00 0.00000000e+00 

        </DataArray>
      </Points>
      <Cells>
        <DataArray type="Int32" Name="connectivity" format="ascii">
0 1 5 4
4 5 9 8
8 9 13 12
1 2 6 5
5 6 10 9
9 10 14 13
2 3 7 6
6 7 11 10
10 11 15 14

        </DataArray>
        <DataArray type="Int32" Name="offsets" format="ascii">
4 8 12 16 20 24 28 32 36 
        </DataArray>
        <DataArray type="UInt8" Name="types" format="ascii">
9 9 9 9 9 9 9 9 9 
        </DataArray>
      </Cells>
      <PointData>
        <DataArray type="Float64" Name="u">
          2.00000000e+02 1.97754289e+02 1.98870436e+02 1.94659689e+02 1.55555556e+02 1.53433406e+02 1.54340759e+02 1.49552465e+02 8.88888889e+01 8.74667256e+01 8.78224615e+01 8.36748325e+01 0.00000000e+00 0.00000000e+00 0.00000000e+00 0.00000000e+00 
        </DataArray>
        <DataArray type="Float64" Name="v">
          0.00000000e+00 -1.22811365e+00 -2.70791475e+00 -3.78861590e+00 0.00000000e+00 -4.40152258e-01 -1.33265726e+00 -2.05900751e+00 0.00000000e+00 -4.19619897e-01 -1.17501972e+00 -5.89218078e-01 0.00000000e+00 0.00000000e+00 0.00000000e+00 0.00000000e+00 
        </DataArray>
        <DataArray type="Float64" Name="p">
          -1.62043986e+03 -2.86064055e+03 -4.10084124e+03 -5.34104193e+03 -1.59047469e+03 -2.82962850e+03 -4.06878231e+03 -5.30793612e+03 -1.56050951e+03 -2.79861645e+03 -4.03672339e+03 -5.27483032e+03 -1.53054434e+03 -2.76760440e+03 -4.00466446e+03 -5.24172452e+03 
        </DataArray>
      </PointData>
    </Piece>
    <Piece NumberOfPoints="16" NumberOfCells="9">
      <Points>
        <DataArray type="Float64" NumberOfComponents="3" format="ascii">
          2.50000000e+00 0.00000000e+00 0.00000000e+00 
3.33333325e+00 0.00000000e+00 0.00000000e+00 
4.16666651e+00 0.00000000e+00 0.00000000e+00 
5.00000000e+00 0.00000000e+00 0.00000000e+00 
2.50000000e+00 3.33333343e-01 0.00000000e+00 
3.33333325e+00 3.33333343e-01 0.00000000e+00 
4.16666651e+00 3.33333343e-01 0.00000000e+00 
5.00000000e+00 3.33333343e-01 0.00000000e+00 
2.50000000e+00 6.66666687e-01 0.00000000e+00 
3.33333325e+00 6.66666687e-01 0.00000000e+00 
4.16666651e+00 6.66666687e-01 0.00000000e+00 
5.00000000e+00 6.66666687e-01 0.00000000e+00 
2.50000000e+00 1.00000000e+00 0.00000000e+00 
3.33333325e+00 1.00000000e+00 0.00000000e+00 
4.16666651e+00 1.00000000e+00 0.00000000e+00 
5.00000000e+00 1.00000000e+00 0.00000000e+00 

        </DataArray>
      </Points>
      <Cells>
        <DataArray type="Int32" Name="connectivity" format="ascii">
0 1 5 4
4 5 9 8
8 9 13 12
1 2 6 5
5 6 10 9
9 10 14 13
2 3 7 6
6 7 11 10
10 11 15 14

        </DataArray>
        <DataArray type="Int32" Name="offsets" format="ascii">
4 8 12 16 20 24 28 32 36 
        </DataArray>
        <DataArray type="UInt8" Name="types" format="ascii">
9 9 9 9 9 9 9 9 9 
        </DataArray>
      </Cells>
      <PointData>
        <DataArray type="Float64" Name="u">
          0.00000000e+00 0.00000000e+00 0.00000000e+00 0.00000000e+00 0.00000000e+00 -3.31551841e+00 -5.63632709e+00 -1.02607907e+01 0.00000000e+00 -5.73450282e+00 -9.99116207e+00 -1.72334985e+01 0.00000000e+00 -7.24016711e+00 -1.24153293e+01 -2.00695561e+01 
        </DataArray>
        <DataArray type="Float64" Name="v">
          0.00000000e+00 0.00000000e+00 0.00000000e+00 0.00000000e+00 0.00000000e+00 9.85439063e-01 1.06641140e+00 8.36511877e-01 0.00000000e+00 2.87085464e+00 2.92652731e+00 2.09353440e+00 0.00000000e+00 6.24934311e+00 6.06338254e+00 4.08279248e+00 
        </DataArray>
        <DataArray type="Float64" Name="p">
          -6.07352673e+03 -6.02241711e+03 -5.97130750e+03 -5.92019789e+03 -6.06113439e+03 -6.00944281e+03 -5.95775124e+03 -5.90605966e+03 -6.04874205e+03 -5.99646851e+03 -5.94419498e+03 -5.89192144e+03 -6.03634971e+03 -5.98349421e+03 -5.93063872e+03 -5.87778322e+03 
        </DataArray>
      </PointData>
    </Piece>
    <Piece NumberOfPoints="16" NumberOfCells="9">
      <Points>
        <DataArray type="Float64" NumberOfComponents="3" format="ascii">
          2.50000000e+00 1.00000000e+00 0.00000000e+00 
3.33333325e+00 1.00000000e+00 0.00000000e+00 
4.16666651e+00 1.00000000e+00 0.00000000e+00 
5.00000000e+00 1.00000000e+00 0.00000000e+00 
2.50000000e+00 1.33333337e+00 0.00000000e+00 
3.33333325e+00 1.33333337e+00 0.00000000e+00 
4.16666651e+00 1.33333337e+00 0.00000000e+00 
5.00000000e+00 1.33333337e+00 0.00000000e+00 
2.50000000e+00 1.66666663e+00 0.00000000e+00 
3.33333325e+00 1.66666663e+00 0.00000000e+00 
4.16666651e+00 1.66666663e+00 0.00000000e+00 
5.00000000e+00 1.66666663e+00 0.00000000e+00 
2.50000000e+00 2.00000000e+00 0.00000000e+00 
3.33333325e+00 2.00000000e+00 0.00000000e+00 
4.16666651e+00 2.00000000e+00 0.00000000e+00 
5.00000000e+00 2.00000000e+00 0.00000000e+00 

        </DataArray>
      </Points>
      <Cells>
        <DataArray type="Int32" Name="connectivity" format="ascii">
0 1 5 4
4 5 9 8
8 9 13 12
1 2 6 5
5 6 10 9
9 10 14 13
2 3 7 6
6 7 11 10
10 11 15 14

        </DataArray>
        <DataArray type="Int32" Name="offsets" format="ascii">
4 8 12 16 20 24 28 32 36 
        </DataArray>
        <DataArray type="UInt8" Name="types" format="ascii">
9 9 9 9 9 9 9 9 9 
        </DataArray>
      </Cells>
      <PointData>
        <DataArray type="Float64" Name="u">
          0.00000000e+00 -7.24016711e+00 -1.24153293e+01 -2.00695561e+01 0.00000000e+00 -7.80092551e+00 -1.24305205e+01 -1.85560377e+01 0.00000000e+00 -7.21881555e+00 -9.63980442e+00 -1.21500535e+01 0.00000000e+00 -4.95781503e+00 -3.37168585e+00 -2.20288651e-01 
        </DataArray>
        <DataArray type="Float64" Name="v">
          0.00000000e+00 6.24934311e+00 6.06338254e+00 4.08279248e+00 0.00000000e+00 1.02032134e+01 9.10078944e+00 5.32988954e+00 0.00000000e+00 1.31354962e+01 1.09907783e+01 5.29747865e+00 0.00000000e+00 1.59542064e+01 1.15826771e+01 3.37356625e+00 
        </DataArray>
        <DataArray type="Float64" Name="p">
          -6.02219398e+03 -5.97977667e+03 -5.93735936e+03 -5.89494206e+03 -6.10880772e+03 -6.05911668e+03 -6.00942564e+03 -5.95973460e+03 -6.19542146e+03 -6.13845668e+03 -6.08149191e+03 -6.02452714e+03 -6.28203519e+03 -6.21779669e+03 -6.15355819e+03 -6.08931969e+03 
        </DataArray>
      </PointData>
    </Piece>
    <Piece NumberOfPoints="16" NumberOfCells="9">
      <Points>
        <DataArray type="Float64" NumberOfComponents="3" format="ascii">
          2.50000000e+00 2.00000000e+00 0.00000000e+00 
3.33333325e+00 2.00000000e+00 0.00000000e+00 
4.16666651e+00 2.00000000e+00 0.00000000e+00 
5.00000000e+00 2.00000000e+00 0.00000000e+00 
2.50000000e+00 2.33333325e+00 0.00000000e+00 
3.33333325e+00 2.33333325e+00 0.00000000e+00 
4.16666651e+00 2.33333325e+00 0.00000000e+00 
5.00000000e+00 2.33333325e+00 0.00000000e+00 
2.50000000e+00 2.66666675e+00 0.00000000e+00 
3.33333325e+00 2.66666675e+00 0.00000000e+00 
4.16666651e+00 2.66666675e+00 0.00000000e+00 
5.00000000e+00 2.66666675e+00 0.00000000e+00 
2.50000000e+00 3.00000000e+00 0.00000000e+00 
3.33333325e+00 3.00000000e+00 0.00000000e+00 
4.16666651e+00 3.00000000e+00 0.00000000e+00 
5.00000000e+00 3.00000000e+00 0.00000000e+00 

        </DataArray>
      </Points>
      <Cells>
        <DataArray type="Int32" Name="connectivity" format="ascii">
0 1 5 4
4 5 9 8
8 9 13 12
1 2 6 5
5 6 10 9
9 10 14 13
2 3 7 6
6 7 11 10
10 11 15 14

        </DataArray>
        <DataArray type="Int32" Name="offsets" format="ascii">
4 8 12 16 20 24 28 32 36 
        </DataArray>
        <DataArray type="UInt8" Name="types" format="ascii">
9 9 9 9 9 9 9 9 9 
        </DataArray>
      </Cells>
      <PointData>
        <DataArray type="Float64" Name="u">
          0.00000000e+00 -4.95781503e+00 -3.37168585e+00 -2.20288651e-01 0.00000000e+00 2.28599458e-01 6.98030402e+00 1.96983766e+01 0.00000000e+00 1.46860490e+01 2.66875198e+01 4.74257924e+01 0.00000000e+00 5.26313718e+01 6.30929466e+01 8.57180112e+01 
        </DataArray>
        <DataArray type="Float64" Name="v">
          0.00000000e+00 1.59542064e+01 1.15826771e+01 3.37356625e+00 0.00000000e+00 1.70007103e+01 8.33444599e+00 -1.71444113e+00 0.00000000e+00 1.24910334e+01 3.88172094e+00 -5.95920574e+00 0.00000000e+00 -8.51121391e-01 -5.43954987e+00 -9.89186128e+00 
        </DataArray>
        <DataArray type="Float64" Name="p">
          -6.23721107e+03 -6.22866254e+03 -6.22011401e+03 -6.21156548e+03 -6.56675164e+03 -6.38193846e+03 -6.19712529e+03 -6.01231211e+03 -6.89629222e+03 -6.53521439e+03 -6.17413657e+03 -5.81305874e+03 -7.22583279e+03 -6.68849032e+03 -6.15114784e+03 -5.61380537e+03 
        </DataArray>
      </PointData>
    </Piece>
    <Piece NumberOfPoints="16" NumberOfCells="9">
      <Points>
        <DataArray type="Float64" NumberOfComponents="3" format="ascii">
          2.50000000e+00 3.00000000e+00 0.00000000e+00 
3.33333325e+00 3.00000000e+00 0.00000000e+00 
4.16666651e+00 3.00000000e+00 0.00000000e+00 
5.00000000e+00 3.00000000e+00 0.00000000e+00 
2.50000000e+00 3.33333325e+00 0.00000000e+00 
3.33333325e+00 3.33333325e+00 0.00000000e+00 
4.16666651e+00 3.33333325e+00 0.00000000e+00 
5.00000000e+00 3.33333325e+00 0.00000000e+00 
2.50000000e+00 3.66666675e+00 0.00000000e+00 
3.33333325e+00 3.66666675e+00 0.00000000e+00 
4.16666651e+00 3.66666675e+00 0.00000000e+00 
5.00000000e+00 3.66666675e+00 0.00000000e+00 
2.50000000e+00 4.00000000e+00 0.00000000e+00 
3.33333325e+00 4.00000000e+00 0.00000000e+00 
4.16666651e+00 4.00000000e+00 0.00000000e+00 
5.00000000e+00 4.00000000e+00 0.00000000e+00 

        </DataArray>
      </Points>
      <Cells>
        <DataArray type="Int32" Name="connectivity" format="ascii">
0 1 5 4
4 5 9 8
8 9 13 12
1 2 6 5
5 6 10 9
9 10 14 13
2 3 7 6
6 7 11 10
10 11 15 14

        </DataArray>
        <DataArray type="Int32" Name="offsets" format="ascii">
4 8 12 16 20 24 28 32 36 
        </DataArray>
        <DataArray type="UInt8" Name="types" format="ascii">
9 9 9 9 9 9 9 9 9 
        </DataArray>
      </Cells>
      <PointData>
        <DataArray type="Float64" Name="u">
          0.00000000e+00 5.26313718e+01 6.30929466e+01 8.57180112e+01 9.83512770e+01 1.05549725e+02 1.15455830e+02 1.25861196e+02 1.61994848e+02 1.60330402e+02 1.64894355e+02 1.66332929e+02 2.03010574e+02 1.97500119e+02 1.99642809e+02 1.94269505e+02 
        </DataArray>
        <DataArray type="Float64" Name="v">
          0.00000000e+00 -8.51121391e-01 -5.43954987e+00 -9.89186128e+00 -3.79263432e+00 -1.17610420e+01 -1.26529907e+01 -1.16448472e+01 -3.61368110e+00 -1.21110935e+01 -1.45218373e+01 -1.35330341e+01 -5.37543533e+00 -1.14842816e+01 -1.41178849e+01 -1.55903168e+01 
        </DataArray>
        <DataArray type="Float64" Name="p">
          -7.34970948e+03 -6.71977906e+03 -6.08984863e+03 -5.45991821e+03 -6.70886349e+03 -6.35683955e+03 -6.00481562e+03 -5.65279168e+03 -6.06801750e+03 -5.99390005e+03 -5.91978260e+03 -5.84566515e+03 -5.42717151e+03 -5.63096055e+03 -5.83474959e+03 -6.03853862e+03 
        </DataArray>
      </PointData>
    </Piece>
    <Piece NumberOfPoints="16" NumberOfCells="9">
      <Points>
        <DataArray type="Float64" NumberOfComponents="3" format="ascii">
          2.50000000e+00 4.00000000e+00 0.00000000e+00 
3.33333325e+00 4.00000000e+00 0.00000000e+00 
4.16666651e+00 4.00000000e+00 0.00000000e+00 
5.00000000e+00 4.00000000e+00 0.00000000e+00 
2.50000000e+00 4.33333349e+00 0.00000000e+00 
3.33333325e+00 4.33333349e+00 0.00000000e+00 
4.16666651e+00 4.33333349e+00 0.00000000e+00 
5.00000000e+00 4.33333349e+00 0.00000000e+00 
2.50000000e+00 4.66666651e+00 0.00000000e+00 
3.33333325e+00 4.66666651e+00 0.00000000e+00 
4.16666651e+00 4.66666651e+00 0.00000000e+00 
5.00000000e+00 4.66666651e+00 0.00000000e+00 
2.50000000e+00 5.00000000e+00 0.00000000e+00 
3.33333325e+00 5.00000000e+00 0.00000000e+00 
4.16666651e+00 5.00000000e+00 0.00000000e+00 
5.00000000e+00 5.00000000e+00 0.00000000e+00 

        </DataArray>
      </Points>
      <Cells>
        <DataArray type="Int32" Name="connectivity" format="ascii">
0 1 5 4
4 5 9 8
8 9 13 12
1 2 6 5
5 6 10 9
9 10 14 13
2 3 7 6
6 7 11 10
10 11 15 14

        </DataArray>
        <DataArray type="Int32" Name="offsets" format="ascii">
4 8 12 16 20 24 28 32 36 
        </DataArray>
        <DataArray type="UInt8" Name="types" format="ascii">
9 9 9 9 9 9 9 9 9 
        </DataArray>
      </Cells>
      <PointData>
        <DataArray type="Float64" Name="u">
          2.03010574e+02 1.97500119e+02 1.99642809e+02 1.94269505e+02 2.22116611e+02 2.14811010e+02 2.13343852e+02 2.05161260e+02 2.19196458e+02 2.10652243e+02 2.06855251e+02 1.96360004e+02 1.94659689e+02 1.86026220e+02 1.81061215e+02 1.69847089e+02 
        </DataArray>
        <DataArray type="Float64" Name="v">
          -5.37543533e+00 -1.14842816e+01 -1.41178849e+01 -1.55903168e+01 -5.05401760e+00 -8.12219225e+00 -1.17041277e+01 -1.48620406e+01 -5.12516111e+00 -7.17944571e+00 -9.29307086e+00 -1.23667533e+01 -3.78861590e+00 -2.55852317e+00 -5.24149033e+00 -9.41196125e+00 
        </DataArray>
        <DataArray type="Float64" Name="p">
          -5.23936310e+03 -5.50477230e+03 -5.77018151e+03 -6.03559071e+03 -5.01625433e+03 -5.24864693e+03 -5.48103953e+03 -5.71343213e+03 -4.79314556e+03 -4.99252155e+03 -5.19189755e+03 -5.39127354e+03 -4.57003678e+03 -4.73639618e+03 -4.90275557e+03 -5.06911496e+03 
        </DataArray>
      </PointData>
    </Piece>
    <Piece NumberOfPoints="16" NumberOfCells="9">
      <Points>
        <DataArray type="Float64" NumberOfComponents="3" format="ascii">
          2.50000000e+00 5.00000000e+00 0.00000000e+00 
3.33333325e+00 5.00000000e+00 0.00000000e+00 
4.16666651e+00 5.00000000e+00 0.00000000e+00 
5.00000000e+00 5.00000000e+00 0.00000000e+00 
2.50000000e+00 5.33333349e+00 0.00000000e+00 
3.33333325e+00 5.33333349e+00 0.00000000e+00 
4.16666651e+00 5.33333349e+00 0.00000000e+00 
5.00000000e+00 5.33333349e+00 0.00000000e+00 
2.50000000e+00 5.66666651e+00 0.00000000e+00 
3.33333325e+00 5.66666651e+00 0.00000000e+00 
4.16666651e+00 5.66666651e+00 0.00000000e+00 
5.00000000e+00 5.66666651e+00 0.00000000e+00 
2.50000000e+00 6.00000000e+00 0.00000000e+00 
3.33333325e+00 6.00000000e+00 0.00000000e+00 
4.16666651e+00 6.00000000e+00 0.00000000e+00 
5.00000000e+00 6.00000000e+00 0.00000000e+00 

        </DataArray>
      </Points>
      <Cells>
        <DataArray type="Int32" Name="connectivity" format="ascii">
0 1 5 4
4 5 9 8
8 9 13 12
1 2 6 5
5 6 10 9
9 10 14 13
2 3 7 6
6 7 11 10
10 11 15 14

        </DataArray>
        <DataArray type="Int32" Name="offsets" format="ascii">
4 8 12 16 20 24 28 32 36 
        </DataArray>
        <DataArray type="UInt8" Name="types" format="ascii">
9 9 9 9 9 9 9 9 9 
        </DataArray>
      </Cells>
      <PointData>
        <DataArray type="Float64" Name="u">
          1.94659689e+02 1.86026220e+02 1.81061215e+02 1.69847089e+02 1.49552465e+02 1.42338286e+02 1.37520840e+02 1.29990005e+02 8.36748325e+01 8.61385557e+01 8.56432552e+01 8.64223826e+01 0.00000000e+00 3.91677456e+01 4.04972188e+01 5.23898847e+01 
        </DataArray>
        <DataArray type="Float64" Name="v">
          -3.78861590e+00 -2.55852317e+00 -5.24149033e+00 -9.41196125e+00 -2.05900751e+00 1.35629232e+00 -6.87509681e-01 -5.91499453e+00 -5.89218078e-01 1.41787234e+00 -1.71157257e+00 -5.00392677e+00 0.00000000e+00 -5.14073987e+00 -3.43607620e+00 -1.72319227e+00 
        </DataArray>
        <DataArray type="Float64" Name="p">
          -4.69292698e+03 -4.76729403e+03 -4.84166108e+03 -4.91602812e+03 -5.00573087e+03 -4.88139092e+03 -4.75705098e+03 -4.63271104e+03 -5.31853475e+03 -4.99548782e+03 -4.67244089e+03 -4.34939395e+03 -5.63133863e+03 -5.10958471e+03 -4.58783079e+03 -4.06607687e+03 
        </DataArray>
      </PointData>
    </Piece>
    <Piece NumberOfPoints="16" NumberOfCells="9">
      <Points>
        <DataArray type="Float64" NumberOfComponents="3" format="ascii">
          2.50000000e+00 6.00000000e+00 0.00000000e+00 
3.33333325e+00 6.00000000e+00 0.00000000e+00 
4.16666651e+00 6.00000000e+00 0.00000000e+00 
5.00000000e+00 6.00000000e+00 0.00000000e+00 
2.50000000e+00 6.33333349e+00 0.00000000e+00 
3.33333325e+00 6.33333349e+00 0.00000000e+00 
4.16666651e+00 6.33333349e+00 0.00000000e+00 
5.00000000e+00 6.33333349e+00 0.00000000e+00 
2.50000000e+00 6.66666651e+00 0.00000000e+00 
3.33333325e+00 6.66666651e+00 0.00000000e+00 
4.16666651e+00 6.66666651e+00 0.00000000e+00 
5.00000000e+00 6.66666651e+00 0.00000000e+00 
2.50000000e+00 7.00000000e+00 0.00000000e+00 
3.33333325e+00 7.00000000e+00 0.00000000e+00 
4.16666651e+00 7.00000000e+00 0.00000000e+00 
5.00000000e+00 7.00000000e+00 0.00000000e+00 

        </DataArray>
      </Points>
      <Cells>
        <DataArray type="Int32" Name="connectivity" format="ascii">
0 1 5 4
4 5 9 8
8 9 13 12
1 2 6 5
5 6 10 9
9 10 14 13
2 3 7 6
6 7 11 10
10 11 15 14

        </DataArray>
        <DataArray type="Int32" Name="offsets" format="ascii">
4 8 12 16 20 24 28 32 36 
        </DataArray>
        <DataArray type="UInt8" Name="types" format="ascii">
9 9 9 9 9 9 9 9 9 
        </DataArray>
      </Cells>
      <PointData>
        <DataArray type="Float64" Name="u">
          0.00000000e+00 3.91677456e+01 4.04972188e+01 5.23898847e+01 0.00000000e+00 9.06952432e+00 1.38285561e+01 2.34703264e+01 0.00000000e+00 -1.84133536e+00 7.99501066e-02 4.30883485e+00 0.00000000e+00 -5.48716193e+00 -6.71044210e+00 -8.08413128e+00 
        </DataArray>
        <DataArray type="Float64" Name="v">
          0.00000000e+00 -5.14073987e+00 -3.43607620e+00 -1.72319227e+00 0.00000000e+00 -1.38309312e+01 -8.11151518e+00 -2.18522341e+00 0.00000000e+00 -1.59755379e+01 -9.54240092e+00 -3.44528824e+00 0.00000000e+00 -1.40463390e+01 -1.04107818e+01 -5.13957286e+00 
        </DataArray>
        <DataArray type="Float64" Name="p">
          -5.59614877e+03 -5.16520927e+03 -4.73426977e+03 -4.30333026e+03 -5.32081758e+03 -5.02312068e+03 -4.72542379e+03 -4.42772689e+03 -5.04548639e+03 -4.88103210e+03 -4.71657781e+03 -4.55212351e+03 -4.77015520e+03 -4.73894351e+03 -4.70773183e+03 -4.67652014e+03 
        </DataArray>
      </PointData>
    </Piece>
    <Piece NumberOfPoints="16" NumberOfCells="9">
      <Points>
        <DataArray type="Float64" NumberOfComponents="3" format="ascii">
          2.50000000e+00 7.00000000e+00 0.00000000e+00 
3.33333325e+00 7.00000000e+00 0.00000000e+00 
4.16666651e+00 7.00000000e+00 0.00000000e+00 
5.00000000e+00 7.00000000e+00 0.00000000e+00 
2.50000000e+00 7.33333349e+00 0.00000000e+00 
3.33333325e+00 7.33333349e+00 0.00000000e+00 
4.16666651e+00 7.33333349e+00 0.00000000e+00 
5.00000000e+00 7.33333349e+00 0.00000000e+00 
2.50000000e+00 7.66666651e+00 0.00000000e+00 
3.33333325e+00 7.66666651e+00 0.00000000e+00 
4.16666651e+00 7.66666651e+00 0.00000000e+00 
5.00000000e+00 7.66666651e+00 0.00000000e+00 
2.50000000e+00 8.00000000e+00 0.00000000e+00 
3.33333325e+00 8.00000000e+00 0.00000000e+00 
4.16666651e+00 8.00000000e+00 0.00000000e+00 
5.00000000e+00 8.00000000e+00 0.00000000e+00 

        </DataArray>
      </Points>
      <Cells>
        <DataArray type="Int32" Name="connectivity" format="ascii">
0 1 5 4
4 5 9 8
8 9 13 12
1 2 6 5
5 6 10 9
9 10 14 13
2 3 7 6
6 7 11 10
10 11 15 14

        </DataArray>
        <DataArray type="Int32" Name="offsets" format="ascii">
4 8 12 16 20 24 28 32 36 
        </DataArray>
        <DataArray type="UInt8" Name="types" format="ascii">
9 9 9 9 9 9 9 9 9 
        </DataArray>
      </Cells>
      <PointData>
        <DataArray type="Float64" Name="u">
          0.00000000e+00 -5.48716193e+00 -6.71044210e+00 -8.08413128e+00 0.00000000e+00 -6.71961066e+00 -1.02324583e+01 -1.44030933e+01 0.00000000e+00 -6.64509408e+00 -1.11709910e+01 -1.68629944e+01 0.00000000e+00 -5.79067709e+00 -1.02251658e+01 -1.62068141e+01 
        </DataArray>
        <DataArray type="Float64" Name="v">
          0.00000000e+00 -1.40463390e+01 -1.04107818e+01 -5.13957286e+00 0.00000000e+00 -1.09809869e+01 -8.96647755e+00 -5.13920249e+00 0.00000000e+00 -8.26090463e+00 -7.06717836e+00 -4.35871895e+00 0.00000000e+00 -4.89104622e+00 -4.54343163e+00 -2.97181834e+00 
        </DataArray>
        <DataArray type="Float64" Name="p">
          -4.79728844e+03 -4.72977772e+03 -4.66226700e+03 -4.59475628e+03 -4.72234053e+03 -4.66920533e+03 -4.61607014e+03 -4.56293495e+03 -4.64739261e+03 -4.60863295e+03 -4.56987328e+03 -4.53111362e+03 -4.57244470e+03 -4.54806056e+03 -4.52367642e+03 -4.49929228e+03 
        </DataArray>
      </PointData>
    </Piece>
    <Piece NumberOfPoints="16" NumberOfCells="9">
      <Points>
        <DataArray type="Float64" NumberOfComponents="3" format="ascii">
          2.50000000e+00 8.00000000e+00 0.00000000e+00 
3.33333325e+00 8.00000000e+00 0.00000000e+00 
4.16666651e+00 8.00000000e+00 0.00000000e+00 
5.00000000e+00 8.00000000e+00 0.00000000e+00 
2.50000000e+00 8.33333302e+00 0.00000000e+00 
3.33333325e+00 8.33333302e+00 0.00000000e+00 
4.16666651e+00 8.33333302e+00 0.00000000e+00 
5.00000000e+00 8.33333302e+00 0.00000000e+00 
2.50000000e+00 8.66666698e+00 0.00000000e+00 
3.33333325e+00 8.66666698e+00 0.00000000e+00 
4.16666651e+00 8.66666698e+00 0.00000000e+00 
5.00000000e+00 8.66666698e+00 0.00000000e+00 
2.50000000e+00 9.00000000e+00 0.00000000e+00 
3.33333325e+00 9.00000000e+00 0.00000000e+00 
4.16666651e+00 9.00000000e+00 0.00000000e+00 
5.00000000e+00 9.00000000e+00 0.00000000e+00 

        </DataArray>
      </Points>
      <Cells>
        <DataArray type="Int32" Name="connectivity" format="ascii">
0 1 5 4
4 5 9 8
8 9 13 12
1 2 6 5
5 6 10 9
9 10 14 13
2 3 7 6
6 7 11 10
10 11 15 14

        </DataArray>
        <DataArray type="Int32" Name="offsets" format="ascii">
4 8 12 16 20 24 28 32 36 
        </DataArray>
        <DataArray type="UInt8" Name="types" format="ascii">
9 9 9 9 9 9 9 9 9 
        </DataArray>
      </Cells>
      <PointData>
        <DataArray type="Float64" Name="u">
          0.00000000e+00 -5.79067709e+00 -1.02251658e+01 -1.62068141e+01 0.00000000e+00 -4.39535887e+00 -7.83554470e+00 -1.30545316e+01 0.00000000e+00 -2.47042409e+00 -4.29651553e+00 -7.60590695e+00 0.00000000e+00 0.00000000e+00 0.00000000e+00 0.00000000e+00 
        </DataArray>
        <DataArray type="Float64" Name="v">
          0.00000000e+00 -4.89104622e+00 -4.54343163e+00 -2.97181834e+00 0.00000000e+00 -2.20840366e+00 -2.20297516e+00 -1.42689471e+00 0.00000000e+00 -7.28328197e-01 -7.85569670e-01 -5.03182426e-01 0.00000000e+00 0.00000000e+00 0.00000000e+00 0.00000000e+00 
        </DataArray>
        <DataArray type="Float64" Name="p">
          -4.58674424e+03 -4.55528788e+03 -4.52383152e+03 -4.49237515e+03 -4.59800317e+03 -4.56652067e+03 -4.53503817e+03 -4.50355568e+03 -4.60926209e+03 -4.57775346e+03 -4.54624483e+03 -4.51473620e+03 -4.62052101e+03 -4.58898625e+03 -4.55745148e+03 -4.52591672e+03 
        </DataArray>
      </PointData>
    </Piece>
    <Piece NumberOfPoints="16" NumberOfCells="9">
      <Points>
        <DataArray type="Float64" NumberOfComponents="3" format="ascii">
          5.00000000e+00 0.00000000e+00 0.00000000e+00 
5.83333349e+00 0.00000000e+00 0.00000000e+00 
6.66666651e+00 0.00000000e+00 0.00000000e+00 
7.50000000e+00 0.00000000e+00 0.00000000e+00 
5.00000000e+00 3.33333343e-01 0.00000000e+00 
5.83333349e+00 3.33333343e-01 0.00000000e+00 
6.66666651e+00 3.33333343e-01 0.00000000e+00 
7.50000000e+00 3.33333343e-01 0.00000000e+00 
5.00000000e+00 6.66666687e-01 0.00000000e+00 
5.83333349e+00 6.66666687e-01 0.00000000e+00 
6.66666651e+00 6.66666687e-01 0.00000000e+00 
7.50000000e+00 6.66666687e-01 0.00000000e+00 
5.00000000e+00 1.00000000e+00 0.00000000e+00 
5.83333349e+00 1.00000000e+00 0.00000000e+00 
6.66666651e+00 1.00000000e+00 0.00000000e+00 
7.50000000e+00 1.00000000e+00 0.00000000e+00 

        </DataArray>
      </Points>
      <Cells>
        <DataArray type="Int32" Name="connectivity" format="ascii">
0 1 5 4
4 5 9 8
8 9 13 12
1 2 6 5
5 6 10 9
9 10 14 13
2 3 7 6
6 7 11 10
10 11 15 14

        </DataArray>
        <DataArray type="Int32" Name="offsets" format="ascii">
4 8 12 16 20 24 28 32 36 
        </DataArray>
        <DataArray type="UInt8" Name="types" format="ascii">
9 9 9 9 9 9 9 9 9 
        </DataArray>
      </Cells>
      <PointData>
        <DataArray type="Float64" Name="u">