<?xml version="1.0"?>
<VTKFile type="UnstructuredGrid" version="0.1" byte_order="LittleEndian">
  <UnstructuredGrid>
    <Piece NumberOfPoints="16" NumberOfCells="9">
      <Points>
        <DataArray type="Float64" NumberOfComponents="3" format="ascii">
          0.00000000e+00 3.00000000e+00 0.00000000e+00 
8.33333313e-01 3.00000000e+00 0.00000000e+00 
1.66666663e+00 3.00000000e+00 0.00000000e+00 
2.50000000e+00 3.00000000e+00 0.00000000e+00 
0.00000000e+00 3.33333325e+00 0.00000000e+00 
8.33333313e-01 3.33333325e+00 0.00000000e+00 
1.66666663e+00 3.33333325e+00 0.00000000e+00 
2.50000000e+00 3.33333325e+00 0.00000000e+00 
0.00000000e+00 3.66666675e+00 0.00000000e+00 
8.33333313e-01 3.66666675e+00 0.00000000e+00 
1.66666663e+00 3.66666675e+00 0.00000000e+00 
2.50000000e+00 3.66666675e+00 0.00000000e+00 
0.00000000e+00 4.00000000e+00 0.00000000e+00 
8.33333313e-01 4.00000000e+00 0.00000000e+00 
1.66666663e+00 4.00000000e+00 0.00000000e+00 
2.50000000e+00 4.00000000e+00 0.00000000e+00 

        </DataArray>
      </Points>
      <Cells>
        <DataArray type="Int32" Name="connectivity" format="ascii">
0 1 5 4
4 5 9 8
8 9 13 12
1 2 6 5
5 6 10 9
9 10 14 13
2 3 7 6
6 7 11 10
10 11 15 14

        </DataArray>
        <DataArray type="Int32" Name="offsets" format="ascii">
4 8 12 16 20 24 28 32 36 
        </DataArray>
        <DataArray type="UInt8" Name="types" format="ascii">
9 9 9 9 9 9 9 9 9 
        </DataArray>
      </Cells>
      <PointData>
        <DataArray type="Float64" Name="u">
          0.00000000e+00 0.00000000e+00 0.00000000e+00 0.00000000e+00 8.88888889e+01 9.11993065e+01 9.08371796e+01 9.72819601e+01 1.55555556e+02 1.57066702e+02 1.57801515e+02 1.61103764e+02 2.00000000e+02 2.00129968e+02 2.01531538e+02 2.02330504e+02 
        </DataArray>
        <DataArray type="Float64" Name="v">
          0.00000000e+00 0.00000000e+00 0.00000000e+00 0.00000000e+00 0.00000000e+00 -7.97905409e-01 -1.06891329e+00 -3.54260581e+00 0.00000000e+00 -7.50371271e-01 -1.60275636e+00 -3.27887463e+00 0.00000000e+00 -1.58219205e+00 -2.72388486e+00 -4.74350674e+00 
        </DataArray>
        <DataArray type="Float64" Name="p">
          -1.84644778e+03 -3.23727294e+03 -4.62809811e+03 -6.01892327e+03 -1.83776183e+03 -3.20524822e+03 -4.57273462e+03 -5.94022101e+03 -1.82907588e+03 -3.17322350e+03 -4.51737112e+03 -5.86151875e+03 -1.82038994e+03 -3.14119878e+03 -4.46200763e+03 -5.78281648e+03 
        </DataArray>
      </PointData>
    </Piece>
    <Piece NumberOfPoints="16" NumberOfCells="9">
      <Points>
        <DataArray type="Float64" NumberOfComponents="3" format="ascii">
          0.00000000e+00 4.00000000e+00 0.00000000e+00 
8.33333313e-01 4.00000000e+00 0.00000000e+00 
1.66666663e+00 4.00000000e+00 0.00000000e+00 
2.50000000e+00 4.00000000e+00 0.00000000e+00 
0.00000000e+00 4.33333349e+00 0.00000000e+00 
8.33333313e-01 4.33333349e+00 0.00000000e+00 
1.66666663e+00 4.33333349e+00 0.00000000e+00 
2.50000000e+00 4.33333349e+00 0.00000000e+00 
0.00000000e+00 4.66666651e+00 0.00000000e+00 
8.33333313e-01 4.66666651e+00 0.00000000e+00 
1.66666663e+00 4.66666651e+00 0.00000000e+00 
2.50000000e+00 4.66666651e+00 0.00000000e+00 
0.00000000e+00 5.00000000e+00 0.00000000e+00 
8.33333313e-01 5.00000000e+00 0.00000000e+00 
1.66666663e+00 5.00000000e+00 0.00000000e+00 
2.50000000e+00 5.00000000e+00 0.00000000e+00 

        </DataArray>
      </Points>
      <Cells>
        <DataArray type="Int32" Name="connectivity" format="ascii">
0 1 5 4
4 5 9 8
8 9 13 12
1 2 6 5
5 6 10 9
9 10 14 13
2 3 7 6
6 7 11 10
10 11 15 14

        </DataArray>
        <DataArray type="Int32" Name="offsets" format="ascii">
4 8 12 16 20 24 28 32 36 
        </DataArray>
        <DataArray type="UInt8" Name="types" format="ascii">
9 9 9 9 9 9 9 9 9 
        </DataArray>
      </Cells>
      <PointData>
        <DataArray type="Float64" Name="u">
          2.00000000e+02 2.00129968e+02 2.01531538e+02 2.02330504e+02 2.22222222e+02 2.21402554e+02 2.22618776e+02 2.21830628e+02 2.22222222e+02 2.20602153e+02 2.21714285e+02 2.19334269e+02 2.00000000e+02 1.97898946e+02 1.99115755e+02 1.95208357e+02 
        </DataArray>
        <DataArray type="Float64" Name="v">
          0.00000000e+00 -1.58219205e+00 -2.72388486e+00 -4.74350674e+00 0.00000000e+00 -1.55735613e+00 -3.03731298e+00 -4.31366377e+00 0.00000000e+00 -1.53832697e+00 -2.83013910e+00 -4.38254967e+00 0.00000000e+00 -9.77380743e-01 -2.24412702e+00 -3.07730233e+00 
        </DataArray>
        <DataArray type="Float64" Name="p">
          -1.78524715e+03 -3.10602430e+03 -4.42680145e+03 -5.74757859e+03 -1.65208472e+03 -2.97373972e+03 -4.29539473e+03 -5.61704973e+03 -1.51892229e+03 -2.84145515e+03 -4.16398801e+03 -5.48652088e+03 -1.38575986e+03 -2.70917058e+03 -4.03258130e+03 -5.35599202e+03 
        </DataArray>
      </PointData>
    </Piece>
    <Piece NumberOfPoints="16" NumberOfCells="9">
      <Points>
        <DataArray type="Float64" NumberOfComponents="3" format="ascii">
          0.00000000e+00 5.00000000e+00 0.00000000e+00 
8.33333313e-01 5.00000000e+00 0.00000000e+00 
1.66666663e+00 5.00000000e+00 0.00000000e+00 
2.50000000e+00 5.00000000e+00 0.00000000e+00 
0.00000000e+00 5.33333349e+00 0.00000000e+00 
8.33333313e-01 5.33333349e+00 0.00000000e+00 
1.66666663e+00 5.33333349e+00 0.00000000e+00 
2.50000000e+00 5.33333349e+00 0.00000000e+00 
0.00000000e+00 5.66666651e+00 0.00000000e+00 
8.33333313e-01 5.66666651e+00 0.00000000e+00 
1.66666663e+00 5.66666651e+00 0.00000000e+00 
2.50000000e+00 5.66666651e+00 0.00000000e+00 
0.00000000e+00 6.00000000e+00 0.00000000e+00 
8.33333313e-01 6.00000000e+00 0.00000000e+00 
1.66666663e+00 6.00000000e+00 0.00000000e+00 
2.50000000e+00 6.00000000e+00 0.00000000e+00 

        </DataArray>
      </Points>
      <Cells>
        <DataArray type="Int32" Name="connectivity" format="ascii">
0 1 5 4
4 5 9 8
8 9 13 12
1 2 6 5
5 6 10 9
9 10 14 13
2 3 7 6
6 7 11 10
10 11 15 14

        </DataArray>
        <DataArray type="Int32" Name="offsets" format="ascii">
4 8 12 16 20 24 28 32 36 
        </DataArray>
        <DataArray type="UInt8" Name="types" format="ascii">
9 9 9 9 9 9 9 9 9 
        </DataArray>
      </Cells>
      <PointData>
        <DataArray type="Float64" Name="u">
          2.00000000e+02 1.97898946e+02 1.99115755e+02 1.95208357e+02 1.55555556e+02 1.53722182e+02 1.54662348e+02 1.50493379e+02 8.88888889e+01 8.78045324e+01 8.81176618e+01 8.49300918e+01 0.00000000e+00 0.00000000e+00 0.00000000e+00 0.00000000e+00 
        </DataArray>
        <DataArray type="Float64" Name="v">
          0.00000000e+00 -9.77380743e-01 -2.24412702e+00 -3.07730233e+00 0.00000000e+00 -3.32247668e-01 -1.09104736e+00 -1.57309302e+00 0.00000000e+00 -3.00454523e-01 -9.65072545e-01 -1.68957100e-01 0.00000000e+00 0.00000000e+00 0.00000000e+00 0.00000000e+00 
        </DataArray>
        <DataArray type="Float64" Name="p">
          -1.39400747e+03 -2.70098227e+03 -4.00795708e+03 -5.31493188e+03 -1.36694968e+03 -2.67547733e+03 -3.98400498e+03 -5.29253263e+03 -1.33989190e+03 -2.64997239e+03 -3.96005288e+03 -5.27013337e+03 -1.31283411e+03 -2.62446745e+03 -3.93610078e+03 -5.24773411e+03 
        </DataArray>
      </PointData>
    </Piece>
    <Piece NumberOfPoints="16" NumberOfCells="9">
      <Points>
        <DataArray type="Float64" NumberOfComponents="3" format="ascii">
          2.50000000e+00 0.00000000e+00 0.00000000e+00 
3.33333325e+00 0.00000000e+00 0.00000000e+00 
4.16666651e+00 0.00000000e+00 0.00000000e+00 
5.00000000e+00 0.00000000e+00 0.00000000e+00 
2.50000000e+00 3.33333343e-01 0.00000000e+00 
3.33333325e+00 3.33333343e-01 0.00000000e+00 
4.16666651e+00 3.33333343e-01 0.00000000e+00 
5.00000000e+00 3.33333343e-01 0.00000000e+00 
2.50000000e+00 6.66666687e-01 0.00000000e+00 
3.33333325e+00 6.66666687e-01 0.00000000e+00 
4.16666651e+00 6.66666687e-01 0.00000000e+00 
5.00000000e+00 6.66666687e-01 0.00000000e+00 
2.50000000e+00 1.00000000e+00 0.00000000e+00 
3.33333325e+00 1.00000000e+00 0.00000000e+00 
4.16666651e+00 1.00000000e+00 0.00000000e+00 
5.00000000e+00 1.00000000e+00 0.00000000e+00 

        </DataArray>
      </Points>
      <Cells>
        <DataArray type="Int32" Name="connectivity" format="ascii">
0 1 5 4
4 5 9 8
8 9 13 12
1 2 6 5
5 6 10 9
9 10 14 13
2 3 7 6
6 7 11 10
10 11 15 14

        </DataArray>
        <DataArray type="Int32" Name="offsets" format="ascii">
4 8 12 16 20 24 28 32 36 
        </DataArray>
        <DataArray type="UInt8" Name="types" format="ascii">
9 9 9 9 9 9 9 9 9 
        </DataArray>
      </Cells>
      <PointData>
        <DataArray type="Float64" Name="u">
          0.00000000e+00 0.00000000e+00 0.00000000e+00 0.00000000e+00 0.00000000e+00 -3.37125735e+00 -5.65470080e+00 -1.02845585e+01 0.00000000e+00 -5.80702388e+00 -9.99261764e+00 -1.71732164e+01 0.00000000e+00 -7.31767752e+00 -1.23901406e+01 -1.99742499e+01 
        </DataArray>
        <DataArray type="Float64" Name="v">
          0.00000000e+00 0.00000000e+00 0.00000000e+00 0.00000000e+00 0.00000000e+00 9.94581608e-01 1.07415852e+00 8.06416988e-01 0.00000000e+00 2.89384411e+00 2.93027683e+00 2.02876705e+00 0.00000000e+00 6.29004767e+00 6.03219318e+00 3.97230731e+00 
        </DataArray>
        <DataArray type="Float64" Name="p">
          -5.88334520e+03 -5.82621355e+03 -5.76908190e+03 -5.71195025e+03 -5.86990272e+03 -5.81248357e+03 -5.75506441e+03 -5.69764525e+03 -5.85646025e+03 -5.79875358e+03 -5.74104691e+03 -5.68334025e+03 -5.84301777e+03 -5.78502360e+03 -5.72702942e+03 -5.66903525e+03 
        </DataArray>
      </PointData>
    </Piece>
    <Piece NumberOfPoints="16" NumberOfCells="9">
      <Points>
        <DataArray type="Float64" NumberOfComponents="3" format="ascii">
          2.50000000e+00 1.00000000e+00 0.00000000e+00 
3.33333325e+00 1.00000000e+00 0.00000000e+00 
4.16666651e+00 1.00000000e+00 0.00000000e+00 
5.00000000e+00 1.00000000e+00 0.00000000e+00 
2.50000000e+00 1.33333337e+00 0.00000000e+00 
3.33333325e+00 1.33333337e+00 0.00000000e+00 
4.16666651e+00 1.33333337e+00 0.00000000e+00 
5.00000000e+00 1.33333337e+00 0.00000000e+00 
2.50000000e+00 1.66666663e+00 0.00000000e+00 
3.33333325e+00 1.66666663e+00 0.00000000e+00 
4.16666651e+00 1.66666663e+00 0.00000000e+00 
5.00000000e+00 1.66666663e+00 0.00000000e+00 
2.50000000e+00 2.00000000e+00 0.00000000e+00 
3.33333325e+00 2.00000000e+00 0.00000000e+00 
4.16666651e+00 2.00000000e+00 0.00000000e+00 
5.00000000e+00 2.00000000e+00 0.00000000e+00 

        </DataArray>
      </Points>
      <Cells>
        <DataArray type="Int32" Name="connectivity" format="ascii">
0 1 5 4
4 5 9 8
8 9 13 12
1 2 6 5
5 6 10 9
9 10 14 13
2 3 7 6
6 7 11 10
10 11 15 14

        </DataArray>
        <DataArray type="Int32" Name="offsets" format="ascii">
4 8 12 16 20 24 28 32 36 
        </DataArray>
        <DataArray type="UInt8" Name="types" format="ascii">
9 9 9 9 9 9 9 9 9 
        </DataArray>
      </Cells>
      <PointData>
        <DataArray type="Float64" Name="u">
          0.00000000e+00 -7.31767752e+00 -1.23901406e+01 -1.99742499e+01 0.00000000e+00 -7.88879458e+00 -1.24046488e+01 -1.85034460e+01 0.00000000e+00 -7.31090084e+00 -9.63650302e+00 -1.22177934e+01 0.00000000e+00 -5.02588342e+00 -3.40902172e+00 -4.89344326e-01 
        </DataArray>
        <DataArray type="Float64" Name="v">
          0.00000000e+00 6.29004767e+00 6.03219318e+00 3.97230731e+00 0.00000000e+00 1.02607934e+01 9.03296728e+00 5.19269928e+00 0.00000000e+00 1.32060782e+01 1.09061992e+01 5.17316085e+00 0.00000000e+00 1.60444782e+01 1.15097151e+01 3.32737499e+00 
        </DataArray>
        <DataArray type="Float64" Name="p">
          -5.82805774e+03 -5.78093854e+03 -5.73381933e+03 -5.68670012e+03 -5.92148005e+03 -5.86443988e+03 -5.80739971e+03 -5.75035954e+03 -6.01490236e+03 -5.94794123e+03 -5.88098010e+03 -5.81401896e+03 -6.10832467e+03 -6.03144257e+03 -5.95456048e+03 -5.87767839e+03 
        </DataArray>
      </PointData>
    </Piece>
    <Piece NumberOfPoints="16" NumberOfCells="9">
      <Points>
        <DataArray type="Float64" NumberOfComponents="3" format="ascii">
          2.50000000e+00 2.00000000e+00 0.00000000e+00 
3.33333325e+00 2.00000000e+00 0.00000000e+00 
4.16666651e+00 2.00000000e+00 0.00000000e+00 
5.00000000e+00 2.00000000e+00 0.00000000e+00 
2.50000000e+00 2.33333325e+00 0.00000000e+00 
3.33333325e+00 2.33333325e+00 0.00000000e+00 
4.16666651e+00 2.33333325e+00 0.00000000e+00 
5.00000000e+00 2.33333325e+00 0.00000000e+00 
2.50000000e+00 2.66666675e+00 0.00000000e+00 
3.33333325e+00 2.66666675e+00 0.00000000e+00 
4.16666651e+00 2.66666675e+00 0.00000000e+00 
5.00000000e+00 2.66666675e+00 0.00000000e+00 
2.50000000e+00 3.00000000e+00 0.00000000e+00 
3.33333325e+00 3.00000000e+00 0.00000000e+00 
4.16666651e+00 3.00000000e+00 0.00000000e+00 
5.00000000e+00 3.00000000e+00 0.00000000e+00 

        </DataArray>
      </Points>
      <Cells>
        <DataArray type="Int32" Name="connectivity" format="ascii">
0 1 5 4
4 5 9 8
8 9 13 12
1 2 6 5
5 6 10 9
9 10 14 13
2 3 7 6
6 7 11 10
10 11 15 14

        </DataArray>
        <DataArray type="Int32" Name="offsets" format="ascii">
4 8 12 16 20 24 28 32 36 
        </DataArray>
        <DataArray type="UInt8" Name="types" format="ascii">
9 9 9 9 9 9 9 9 9 
        </DataArray>
      </Cells>
      <PointData>
        <DataArray type="Float64" Name="u">
          0.00000000e+00 -5.02588342e+00 -3.40902172e+00 -4.89344326e-01 0.00000000e+00 2.40795997e-01 6.90733738e+00 1.90807610e+01 0.00000000e+00 1.47215141e+01 2.63742722e+01 4.62967994e+01 0.00000000e+00 5.21299600e+01 6.18699637e+01 8.37475921e+01 
        </DataArray>
        <DataArray type="Float64" Name="v">
          0.00000000e+00 1.60444782e+01 1.15097151e+01 3.32737499e+00 0.00000000e+00 1.70921306e+01 8.38631016e+00 -1.51657430e+00 0.00000000e+00 1.25920928e+01 4.04430610e+00 -5.53100788e+00 0.00000000e+00 -6.17288110e-01 -4.93868980e+00 -9.09848296e+00 
        </DataArray>
        <DataArray type="Float64" Name="p">
          -6.06296089e+03 -6.04240488e+03 -6.02184888e+03 -6.00129287e+03 -6.41042581e+03 -6.20617769e+03 -6.00192957e+03 -5.79768145e+03 -6.75789072e+03 -6.36995049e+03 -5.98201026e+03 -5.59407003e+03 -7.10535564e+03 -6.53372329e+03 -5.96209095e+03 -5.39045860e+03 
        </DataArray>
      </PointData>
    </Piece>
    <Piece NumberOfPoints="16" NumberOfCells="9">
      <Points>
        <DataArray type="Float64" NumberOfComponents="3" format="ascii">
          2.50000000e+00 3.00000000e+00 0.00000000e+00 
3.33333325e+00 3.00000000e+00 0.00000000e+00 
4.16666651e+00 3.00000000e+00 0.00000000e+00 
5.00000000e+00 3.00000000e+00 0.00000000e+00 
2.50000000e+00 3.33333325e+00 0.00000000e+00 
3.33333325e+00 3.33333325e+00 0.00000000e+00 
4.16666651e+00 3.33333325e+00 0.00000000e+00 
5.00000000e+00 3.33333325e+00 0.00000000e+00 
2.50000000e+00 3.66666675e+00 0.00000000e+00 
3.33333325e+00 3.66666675e+00 0.00000000e+00 
4.16666651e+00 3.66666675e+00 0.00000000e+00 
5.00000000e+00 3.66666675e+00 0.00000000e+00 
2.50000000e+00 4.00000000e+00 0.00000000e+00 
3.33333325e+00 4.00000000e+00 0.00000000e+00 
4.16666651e+00 4.00000000e+00 0.00000000e+00 
5.00000000e+00 4.00000000e+00 0.00000000e+00 

        </DataArray>
      </Points>
      <Cells>
        <DataArray type="Int32" Name="connectivity" format="ascii">
0 1 5 4
4 5 9 8
8 9 13 12
1 2 6 5
5 6 10 9
9 10 14 13
2 3 7 6
6 7 11 10
10 11 15 14

        </DataArray>
        <DataArray type="Int32" Name="offsets" format="ascii">
4 8 12 16 20 24 28 32 36 
        </DataArray>
        <DataArray type="UInt8" Name="types" format="ascii">
9 9 9 9 9 9 9 9 9 
        </DataArray>
      </Cells>
      <PointData>
        <DataArray type="Float64" Name="u">
          0.00000000e+00 5.21299600e+01 6.18699637e+01 8.37475921e+01 9.72819601e+01 1.04187499e+02 1.13325589e+02 1.23019546e+02 1.61103764e+02 1.58840139e+02 1.62676106e+02 1.63400754e+02 2.02330504e+02 1.96404659e+02 1.97948017e+02 1.92040268e+02 
        </DataArray>
        <DataArray type="Float64" Name="v">
          0.00000000e+00 -6.17288110e-01 -4.93868980e+00 -9.09848296e+00 -3.54260581e+00 -1.12153845e+01 -1.17179879e+01 -1.04088608e+01 -3.27887463e+00 -1.16193317e+01 -1.36109212e+01 -1.21182609e+01 -4.74350674e+00 -1.06120951e+01 -1.28206781e+01 -1.37490236e+01 
        </DataArray>
        <DataArray type="Float64" Name="p">
          -7.21604983e+03 -6.55229024e+03 -5.88853065e+03 -5.22477106e+03 -6.57724920e+03 -6.19811624e+03 -5.81898329e+03 -5.43985034e+03 -5.93844856e+03 -5.84394224e+03 -5.74943593e+03 -5.65492962e+03 -5.29964792e+03 -5.48976825e+03 -5.67988857e+03 -5.87000889e+03 
        </DataArray>
      </PointData>
    </Piece>
    <Piece NumberOfPoints="16" NumberOfCells="9">
      <Points>
        <DataArray type="Float64" NumberOfComponents="3" format="ascii">
          2.50000000e+00 4.00000000e+00 0.00000000e+00 
3.33333325e+00 4.00000000e+00 0.00000000e+00 
4.16666651e+00 4.00000000e+00 0.00000000e+00 
5.00000000e+00 4.00000000e+00 0.00000000e+00 
2.50000000e+00 4.33333349e+00 0.00000000e+00 
3.33333325e+00 4.33333349e+00 0.00000000e+00 
4.16666651e+00 4.33333349e+00 0.00000000e+00 
5.00000000e+00 4.33333349e+00 0.00000000e+00 
2.50000000e+00 4.66666651e+00 0.00000000e+00 
3.33333325e+00 4.66666651e+00 0.00000000e+00 
4.16666651e+00 4.66666651e+00 0.00000000e+00 
5.00000000e+00 4.66666651e+00 0.00000000e+00 
2.50000000e+00 5.00000000e+00 0.00000000e+00 
3.33333325e+00 5.00000000e+00 0.00000000e+00 
4.16666651e+00 5.00000000e+00 0.00000000e+00 
5.00000000e+00 5.00000000e+00 0.00000000e+00 

        </DataArray>
      </Points>
      <Cells>
        <DataArray type="Int32" Name="connectivity" format="ascii">
0 1 5 4
4 5 9 8
8 9 13 12
1 2 6 5
5 6 10 9
9 10 14 13
2 3 7 6
6 7 11 10
10 11 15 14

        </DataArray>
        <DataArray type="Int32" Name="offsets" format="ascii">
4 8 12 16 20 24 28 32 36 
        </DataArray>
        <DataArray type="UInt8" Name="types" format="ascii">
9 9 9 9 9 9 9 9 9 
        </DataArray>
      </Cells>
      <PointData>
        <DataArray type="Float64" Name="u">
          2.02330504e+02 1.96404659e+02 1.97948017e+02 1.92040268e+02 2.21830628e+02 2.14167506e+02 2.12476574e+02 2.04030209e+02 2.19334269e+02 2.10632076e+02 2.06943435e+02 1.96557462e+02 1.95208357e+02 1.86622464e+02 1.82109836e+02 1.71301313e+02 
        </DataArray>
        <DataArray type="Float64" Name="v">
          -4.74350674e+00 -1.06120951e+01 -1.28206781e+01 -1.37490236e+01 -4.31366377e+00 -7.07183692e+00 -1.02671608e+01 -1.29462992e+01 -4.38254967e+00 -6.01854137e+00 -7.72624714e+00 -1.04192608e+01 -3.07730233e+00 -1.41158400e+00 -3.79150477e+00 -7.73269694e+00 
        </DataArray>
        <DataArray type="Float64" Name="p">
          -5.10756185e+03 -5.36721319e+03 -5.62686453e+03 -5.88651587e+03 -4.91548850e+03 -5.14632737e+03 -5.37716624e+03 -5.60800511e+03 -4.72341515e+03 -4.92544155e+03 -5.12746795e+03 -5.32949435e+03 -4.53134180e+03 -4.70455573e+03 -4.87776966e+03 -5.05098359e+03 
        </DataArray>
      </PointData>
    </Piece>
    <Piece NumberOfPoints="16" NumberOfCells="9">
      <Points>
        <DataArray type="Float64" NumberOfComponents="3" format="ascii">
          2.50000000e+00 5.00000000e+00 0.00000000e+00 
3.33333325e+00 5.00000000e+00 0.00000000e+00 
4.16666651e+00 5.00000000e+00 0.00000000e+00 
5.00000000e+00 5.00000000e+00 0.00000000e+00 
2.50000000e+00 5.33333349e+00 0.00000000e+00 
3.33333325e+00 5.33333349e+00 0.00000000e+00 
4.16666651e+00 5.33333349e+00 0.00000000e+00 
5.00000000e+00 5.33333349e+00 0.00000000e+00 
2.50000000e+00 5.66666651e+00 0.00000000e+00 
3.33333325e+00 5.66666651e+00 0.00000000e+00 
4.16666651e+00 5.66666651e+00 0.00000000e+00 
5.00000000e+00 5.66666651e+00 0.00000000e+00 
2.50000000e+00 6.00000000e+00 0.00000000e+00 
3.33333325e+00 6.00000000e+00 0.00000000e+00 
4.16666651e+00 6.00000000e+00 0.00000000e+00 
5.00000000e+00 6.00000000e+00 0.00000000e+00 

        </DataArray>
      </Points>
      <Cells>
        <DataArray type="Int32" Name="connectivity" format="ascii">
0 1 5 4
4 5 9 8
8 9 13 12
1 2 6 5
5 6 10 9
9 10 14 13
2 3 7 6
6 7 11 10
10 11 15 14

        </DataArray>
        <DataArray type="Int32" Name="offsets" format="ascii">
4 8 12 16 20 24 28 32 36 
        </DataArray>
        <DataArray type="UInt8" Name="types" format="ascii">
9 9 9 9 9 9 9 9 9 
        </DataArray>
      </Cells>
      <PointData>
        <DataArray type="Float64" Name="u">
          1.95208357e+02 1.86622464e+02 1.82109836e+02 1.71301313e+02 1.50493379e+02 1.43592069e+02 1.39439766e+02 1.32641728e+02 8.49300918e+01 8.78452560e+01 8.81299413e+01 8.96960903e+01 0.00000000e+00 4.07119565e+01 4.26612961e+01 5.53941474e+01 
        </DataArray>
        <DataArray type="Float64" Name="v">
          -3.07730233e+00 -1.41158400e+00 -3.79150477e+00 -7.73269694e+00 -1.57309302e+00 2.33501320e+00 4.57722543e-01 -4.70435986e+00 -1.68957100e-01 2.32620934e+00 -6.49182716e-01 -3.96494751e+00 0.00000000e+00 -4.61349579e+00 -2.81215983e+00 -1.03435782e+00 
        </DataArray>
        <DataArray type="Float64" Name="p">
          -4.66593710e+03 -4.74442517e+03 -4.82291324e+03 -4.90140131e+03 -5.01884769e+03 -4.88248908e+03 -4.74613047e+03 -4.60977185e+03 -5.37175828e+03 -5.02055299e+03 -4.66934770e+03 -4.31814240e+03 -5.72466888e+03 -5.15861690e+03 -4.59256492e+03 -4.02651295e+03 
        </DataArray>
      </PointData>
    </Piece>
    <Piece NumberOfPoints="16" NumberOfCells="9">
      <Points>
        <DataArray type="Float64" NumberOfComponents="3" format="ascii">
          2.50000000e+00 6.00000000e+00 0.00000000e+00 
3.33333325e+00 6.00000000e+00 0.00000000e+00 
4.16666651e+00 6.00000000e+00 0.00000000e+00 
5.00000000e+00 6.00000000e+00 0.00000000e+00 
2.50000000e+00 6.33333349e+00 0.00000000e+00 
3.33333325e+00 6.33333349e+00 0.00000000e+00 
4.16666651e+00 6.33333349e+00 0.00000000e+00 
5.00000000e+00 6.33333349e+00 0.00000000e+00 
2.50000000e+00 6.66666651e+00 0.00000000e+00 
3.33333325e+00 6.66666651e+00 0.00000000e+00 
4.16666651e+00 6.66666651e+00 0.00000000e+00 
5.00000000e+00 6.66666651e+00 0.00000000e+00 
2.50000000e+00 7.00000000e+00 0.00000000e+00 
3.33333325e+00 7.00000000e+00 0.00000000e+00 
4.16666651e+00 7.00000000e+00 0.00000000e+00 
5.00000000e+00 7.00000000e+00 0.00000000e+00 

        </DataArray>
      </Points>
      <Cells>
        <DataArray type="Int32" Name="connectivity" format="ascii">
0 1 5 4
4 5 9 8
8 9 13 12
1 2 6 5
5 6 10 9
9 10 14 13
2 3 7 6
6 7 11 10
10 11 15 14

        </DataArray>
        <DataArray type="Int32" Name="offsets" format="ascii">
4 8 12 16 20 24 28 32 36 
        </DataArray>
        <DataArray type="UInt8" Name="types" format="ascii">
9 9 9 9 9 9 9 9 9 
        </DataArray>
      </Cells>
      <PointData>
        <DataArray type="Float64" Name="u">
          0.00000000e+00 4.07119565e+01 4.26612961e+01 5.53941474e+01 0.00000000e+00 9.85888849e+00 1.52373172e+01 2.56869682e+01 0.00000000e+00 -1.58130759e+00 8.24771095e-01 5.68727160e+00 0.00000000e+00 -5.49763180e+00 -6.41583173e+00 -7.46468187e+00 
        </DataArray>
        <DataArray type="Float64" Name="v">
          0.00000000e+00 -4.61349579e+00 -2.81215983e+00 -1.03435782e+00 0.00000000e+00 -1.38358781e+01 -7.83624901e+00 -1.65028273e+00 0.00000000e+00 -1.62728349e+01 -9.54992438e+00 -3.09307652e+00 0.00000000e+00 -1.44332830e+01 -1.06058494e+01 -5.01480156e+00 
        </DataArray>
        <DataArray type="Float64" Name="p">
          -5.68872467e+03 -5.21391246e+03 -4.73910025e+03 -4.26428804e+03 -5.38982594e+03 -5.06063958e+03 -4.73145322e+03 -4.40226686e+03 -5.09092721e+03 -4.90736670e+03 -4.72380619e+03 -4.54024568e+03 -4.79202847e+03 -4.75409382e+03 -4.71615916e+03 -4.67822451e+03 
        </DataArray>
      </PointData>
    </Piece>
    <Piece NumberOfPoints="16" NumberOfCells="9">
      <Points>
        <DataArray type="Float64" NumberOfComponents="3" format="ascii">
          2.50000000e+00 7.00000000e+00 0.00000000e+00 
3.33333325e+00 7.00000000e+00 0.00000000e+00 
4.16666651e+00 7.00000000e+00 0.00000000e+00 
5.00000000e+00 7.00000000e+00 0.00000000e+00 
2.50000000e+00 7.33333349e+00 0.00000000e+00 
3.33333325e+00 7.33333349e+00 0.00000000e+00 
4.16666651e+00 7.33333349e+00 0.00000000e+00 
5.00000000e+00 7.33333349e+00 0.00000000e+00 
2.50000000e+00 7.66666651e+00 0.00000000e+00 
3.33333325e+00 7.66666651e+00 0.00000000e+00 
4.16666651e+00 7.66666651e+00 0.00000000e+00 
5.00000000e+00 7.66666651e+00 0.00000000e+00 
2.50000000e+00 8.00000000e+00 0.00000000e+00 
3.33333325e+00 8.00000000e+00 0.00000000e+00 
4.16666651e+00 8.00000000e+00 0.00000000e+00 
5.00000000e+00 8.00000000e+00 0.00000000e+00 

        </DataArray>
      </Points>
      <Cells>
        <DataArray type="Int32" Name="connectivity" format="ascii">
0 1 5 4
4 5 9 8
8 9 13 12
1 2 6 5
5 6 10 9
9 10 14 13
2 3 7 6
6 7 11 10
10 11 15 14

        </DataArray>
        <DataArray type="Int32" Name="offsets" format="ascii">
4 8 12 16 20 24 28 32 36 
        </DataArray>
        <DataArray type="UInt8" Name="types" format="ascii">
9 9 9 9 9 9 9 9 9 
        </DataArray>
      </Cells>
      <PointData>
        <DataArray type="Float64" Name="u">
          0.00000000e+00 -5.49763180e+00 -6.41583173e+00 -7.46468187e+00 0.00000000e+00 -6.88115240e+00 -1.02606043e+01 -1.43522940e+01 0.00000000e+00 -6.88150242e+00 -1.14033202e+01 -1.71982311e+01 0.00000000e+00 -6.04690501e+00 -1.05507350e+01 -1.67410698e+01 
        </DataArray>
        <DataArray type="Float64" Name="v">
          0.00000000e+00 -1.44332830e+01 -1.06058494e+01 -5.01480156e+00 0.00000000e+00 -1.13603680e+01 -9.23122603e+00 -5.16111028e+00 0.00000000e+00 -8.58396536e+00 -7.31819536e+00 -4.43928988e+00 0.00000000e+00 -5.10929879e+00 -4.73351543e+00 -3.06082523e+00 
        </DataArray>
        <DataArray type="Float64" Name="p">
          -4.82181109e+03 -4.74453646e+03 -4.66726184e+03 -4.58998721e+03 -4.73946190e+03 -4.67812591e+03 -4.61678991e+03 -4.55545392e+03 -4.65711272e+03 -4.61171535e+03 -4.56631799e+03 -4.52092062e+03 -4.57476354e+03 -4.54530480e+03 -4.51584606e+03 -4.48638732e+03 
        </DataArray>
      </PointData>
    </Piece>
    <Piece NumberOfPoints="16" NumberOfCells="9">
      <Points>
        <DataArray type="Float64" NumberOfComponents="3" format="ascii">
          2.50000000e+00 8.00000000e+00 0.00000000e+00 
3.33333325e+00 8.00000000e+00 0.00000000e+00 
4.16666651e+00 8.00000000e+00 0.00000000e+00 
5.00000000e+00 8.00000000e+00 0.00000000e+00 
2.50000000e+00 8.33333302e+00 0.00000000e+00 
3.33333325e+00 8.33333302e+00 0.00000000e+00 
4.16666651e+00 8.33333302e+00 0.00000000e+00 
5.00000000e+00 8.33333302e+00 0.00000000e+00 
2.50000000e+00 8.66666698e+00 0.00000000e+00 
3.33333325e+00 8.66666698e+00 0.00000000e+00 
4.16666651e+00 8.66666698e+00 0.00000000e+00 
5.00000000e+00 8.66666698e+00 0.00000000e+00 
2.50000000e+00 9.00000000e+00 0.00000000e+00 
3.33333325e+00 9.00000000e+00 0.00000000e+00 
4.16666651e+00 9.00000000e+00 0.00000000e+00 
5.00000000e+00 9.00000000e+00 0.00000000e+00 

        </DataArray>
      </Points>
      <Cells>
        <DataArray type="Int32" Name="connectivity" format="ascii">
0 1 5 4
4 5 9 8
8 9 13 12
1 2 6 5
5 6 10 9
9 10 14 13
2 3 7 6
6 7 11 10
10 11 15 14

        </DataArray>
        <DataArray type="Int32" Name="offsets" format="ascii">
4 8 12 16 20 24 28 32 36 
        </DataArray>
        <DataArray type="UInt8" Name="types" format="ascii">
9 9 9 9 9 9 9 9 9 
        </DataArray>
      </Cells>
      <PointData>
        <DataArray type="Float64" Name="u">
          0.00000000e+00 -6.04690501e+00 -1.05507350e+01 -1.67410698e+01 0.00000000e+00 -4.62357926e+00 -8.14794885e+00 -1.36016808e+01 0.00000000e+00 -2.61681828e+00 -4.49439118e+00 -7.97568584e+00 0.00000000e+00 0.00000000e+00 0.00000000e+00 0.00000000e+00 
        </DataArray>
        <DataArray type="Float64" Name="v">
          0.00000000e+00 -5.10929879e+00 -4.73351543e+00 -3.06082523e+00 0.00000000e+00 -2.31506788e+00 -2.30287819e+00 -1.47787140e+00 0.00000000e+00 -7.68478042e-01 -8.25846962e-01 -5.26009705e-01 0.00000000e+00 0.00000000e+00 0.00000000e+00 0.00000000e+00 
        </DataArray>
        <DataArray type="Float64" Name="p">
          -4.58998240e+03 -4.55267281e+03 -4.51536323e+03 -4.47805364e+03 -4.60224442e+03 -4.56486649e+03 -4.52748856e+03 -4.49011063e+03 -4.61450643e+03 -4.57706017e+03 -4.53961390e+03 -4.50216763e+03 -4.62676845e+03 -4.58925384e+03 -4.55173923e+03 -4.51422462e+03 
        </DataArray>
      </PointData>
    </Piece>
    <Piece NumberOfPoints="16" NumberOfCells="9">
      <Points>
        <DataArray type="Float64" NumberOfComponents="3" format="ascii">
          5.00000000e+00 0.00000000e+00 0.00000000e+00 
5.83333349e+00 0.00000000e+00 0.00000000e+00 
6.66666651e+00 0.00000000e+00 0.00000000e+00 
7.50000000e+00 0.00000000e+00 0.00000000e+00 
5.00000000e+00 3.33333343e-01 0.00000000e+00 
5.83333349e+00 3.33333343e-01 0.00000000e+00 
6.66666651e+00 3.33333343e-01 0.00000000e+00 
7.50000000e+00 3.33333343e-01 0.00000000e+00 
5.00000000e+00 6.66666687e-01 0.00000000e+00 
5.83333349e+00 6.66666687e-01 0.00000000e+00 
6.66666651e+00 6.66666687e-01 0.00000000e+00 
7.50000000e+00 6.66666687e-01 0.00000000e+00 
5.00000000e+00 1.00000000e+00 0.00000000e+00 
5.83333349e+00 1.00000000e+00 0.00000000e+00 
6.66666651e+00 1.00000000e+00 0.00000000e+00 
7.50000000e+00 1.00000000e+00 0.00000000e+00 

        </DataArray>
      </Points>
      <Cells>
        <DataArray type="Int32" Name="connectivity" format="ascii">
0 1 5 4
4 5 9 8
8 9 13 12
1 2 6 5
5 6 10 9
9 10 14 13
2 3 7 6
6 7 11 10
10 11 15 14

        </DataArray>
        <DataArray type="Int32" Name="offsets" format="ascii">
4 8 12 16 20 24 28 32 36 
        </DataArray>
        <DataArray type="UInt8" Name="types" format="ascii">
9 9 9 9 9 9 9 9 9 
        </DataArray>
      </Cells>
      <PointData>
        <DataArray type="Float64" Name="u">