<?xml version="1.0"?>
<VTKFile type="UnstructuredGrid" version="0.1" byte_order="LittleEndian">
  <UnstructuredGrid>
    <Piece NumberOfPoints="16" NumberOfCells="9">
      <Points>
        <DataArray type="Float64" NumberOfComponents="3" format="ascii">
          0.00000000e+00 3.00000000e+00 0.00000000e+00 
8.33333313e-01 3.00000000e+00 0.00000000e+00 
1.66666663e+00 3.00000000e+00 0.00000000e+00 
2.50000000e+00 3.00000000e+00 0.00000000e+00 
0.00000000e+00 3.33333325e+00 0.00000000e+00 
8.33333313e-01 3.33333325e+00 0.00000000e+00 
1.66666663e+00 3.33333325e+00 0.00000000e+00 
2.50000000e+00 3.33333325e+00 0.00000000e+00 
0.00000000e+00 3.66666675e+00 0.00000000e+00 
8.33333313e-01 3.66666675e+00 0.00000000e+00 
1.66666663e+00 3.66666675e+00 0.00000000e+00 
2.50000000e+00 3.66666675e+00 0.00000000e+00 
0.00000000e+00 4.00000000e+00 0.00000000e+00 
8.33333313e-01 4.00000000e+00 0.00000000e+00 
1.66666663e+00 4.00000000e+00 0.00000000e+00 
2.50000000e+00 4.00000000e+00 0.00000000e+00 

        </DataArray>
      </Points>
      <Cells>
        <DataArray type="Int32" Name="connectivity" format="ascii">
0 1 5 4
4 5 9 8
8 9 13 12
1 2 6 5
5 6 10 9
9 10 14 13
2 3 7 6
6 7 11 10
10 11 15 14

        </DataArray>
        <DataArray type="Int32" Name="offsets" format="ascii">
4 8 12 16 20 24 28 32 36 
        </DataArray>
        <DataArray type="UInt8" Name="types" format="ascii">
9 9 9 9 9 9 9 9 9 
        </DataArray>
      </Cells>
      <PointData>
        <DataArray type="Float64" Name="u">
          0.00000000e+00 0.00000000e+00 0.00000000e+00 0.00000000e+00 8.88888889e+01 9.09470711e+01 9.06618057e+01 9.64700076e+01 1.55555556e+02 1.56823747e+02 1.57616526e+02 1.60407593e+02 2.00000000e+02 1.99949159e+02 2.01398218e+02 2.01814111e+02 
        </DataArray>
        <DataArray type="Float64" Name="v">
          0.00000000e+00 0.00000000e+00 0.00000000e+00 0.00000000e+00 0.00000000e+00 -7.13846835e-01 -9.20332756e-01 -3.34056097e+00 0.00000000e+00 -6.82673872e-01 -1.41949744e+00 -3.00621708e+00 0.00000000e+00 -1.40772626e+00 -2.39196439e+00 -4.24635967e+00 
        </DataArray>
        <DataArray type="Float64" Name="p">
          -1.63554266e+03 -3.06933867e+03 -4.50313467e+03 -5.93693068e+03 -1.63073454e+03 -3.04157568e+03 -4.45241683e+03 -5.86325797e+03 -1.62592641e+03 -3.01381270e+03 -4.40169898e+03 -5.78958526e+03 -1.62111829e+03 -2.98604971e+03 -4.35098113e+03 -5.71591256e+03 
        </DataArray>
      </PointData>
    </Piece>
    <Piece NumberOfPoints="16" NumberOfCells="9">
      <Points>
        <DataArray type="Float64" NumberOfComponents="3" format="ascii">
          0.00000000e+00 4.00000000e+00 0.00000000e+00 
8.33333313e-01 4.00000000e+00 0.00000000e+00 
1.66666663e+00 4.00000000e+00 0.00000000e+00 
2.50000000e+00 4.00000000e+00 0.00000000e+00 
0.00000000e+00 4.33333349e+00 0.00000000e+00 
8.33333313e-01 4.33333349e+00 0.00000000e+00 
1.66666663e+00 4.33333349e+00 0.00000000e+00 
2.50000000e+00 4.33333349e+00 0.00000000e+00 
0.00000000e+00 4.66666651e+00 0.00000000e+00 
8.33333313e-01 4.66666651e+00 0.00000000e+00 
1.66666663e+00 4.66666651e+00 0.00000000e+00 
2.50000000e+00 4.66666651e+00 0.00000000e+00 
0.00000000e+00 5.00000000e+00 0.00000000e+00 
8.33333313e-01 5.00000000e+00 0.00000000e+00 
1.66666663e+00 5.00000000e+00 0.00000000e+00 
2.50000000e+00 5.00000000e+00 0.00000000e+00 

        </DataArray>
      </Points>
      <Cells>
        <DataArray type="Int32" Name="connectivity" format="ascii">
0 1 5 4
4 5 9 8
8 9 13 12
1 2 6 5
5 6 10 9
9 10 14 13
2 3 7 6
6 7 11 10
10 11 15 14

        </DataArray>
        <DataArray type="Int32" Name="offsets" format="ascii">
4 8 12 16 20 24 28 32 36 
        </DataArray>
        <DataArray type="UInt8" Name="types" format="ascii">
9 9 9 9 9 9 9 9 9 
        </DataArray>
      </Cells>
      <PointData>
        <DataArray type="Float64" Name="u">
          2.00000000e+02 1.99949159e+02 2.01398218e+02 2.01814111e+02 2.22222222e+02 2.21304758e+02 2.22573337e+02 2.21620324e+02 2.22222222e+02 2.20613269e+02 2.21788659e+02 2.19455619e+02 2.00000000e+02 1.98020179e+02 1.99301073e+02 1.95645880e+02 
        </DataArray>
        <DataArray type="Float64" Name="v">
          0.00000000e+00 -1.40772626e+00 -2.39196439e+00 -4.24635967e+00 0.00000000e+00 -1.34385027e+00 -2.63794665e+00 -3.73683808e+00 0.00000000e+00 -1.32010161e+00 -2.42575580e+00 -3.80343710e+00 0.00000000e+00 -7.91772929e-01 -1.89378022e+00 -2.53056630e+00 
        </DataArray>
        <DataArray type="Float64" Name="p">
          -1.58753683e+03 -2.95304132e+03 -4.31854580e+03 -5.68405029e+03 -1.47352860e+03 -2.83875197e+03 -4.20397535e+03 -5.56919872e+03 -1.35952036e+03 -2.72446263e+03 -4.08940489e+03 -5.45434716e+03 -1.24551213e+03 -2.61017328e+03 -3.97483443e+03 -5.33949559e+03 
        </DataArray>
      </PointData>
    </Piece>
    <Piece NumberOfPoints="16" NumberOfCells="9">
      <Points>
        <DataArray type="Float64" NumberOfComponents="3" format="ascii">
          0.00000000e+00 5.00000000e+00 0.00000000e+00 
8.33333313e-01 5.00000000e+00 0.00000000e+00 
1.66666663e+00 5.00000000e+00 0.00000000e+00 
2.50000000e+00 5.00000000e+00 0.00000000e+00 
0.00000000e+00 5.33333349e+00 0.00000000e+00 
8.33333313e-01 5.33333349e+00 0.00000000e+00 
1.66666663e+00 5.33333349e+00 0.00000000e+00 
2.50000000e+00 5.33333349e+00 0.00000000e+00 
0.00000000e+00 5.66666651e+00 0.00000000e+00 
8.33333313e-01 5.66666651e+00 0.00000000e+00 
1.66666663e+00 5.66666651e+00 0.00000000e+00 
2.50000000e+00 5.66666651e+00 0.00000000e+00 
0.00000000e+00 6.00000000e+00 0.00000000e+00 
8.33333313e-01 6.00000000e+00 0.00000000e+00 
1.66666663e+00 6.00000000e+00 0.00000000e+00 
2.50000000e+00 6.00000000e+00 0.00000000e+00 

        </DataArray>
      </Points>
      <Cells>
        <DataArray type="Int32" Name="connectivity" format="ascii">
0 1 5 4
4 5 9 8
8 9 13 12
1 2 6 5
5 6 10 9
9 10 14 13
2 3 7 6
6 7 11 10
10 11 15 14

        </DataArray>
        <DataArray type="Int32" Name="offsets" format="ascii">
4 8 12 16 20 24 28 32 36 
        </DataArray>
        <DataArray type="UInt8" Name="types" format="ascii">
9 9 9 9 9 9 9 9 9 
        </DataArray>
      </Cells>
      <PointData>
        <DataArray type="Float64" Name="u">
          2.00000000e+02 1.98020179e+02 1.99301073e+02 1.95645880e+02 1.55555556e+02 1.53943728e+02 1.54901713e+02 1.51219153e+02 8.88888889e+01 8.80497217e+01 8.83299123e+01 8.58539769e+01 0.00000000e+00 0.00000000e+00 0.00000000e+00 0.00000000e+00 
        </DataArray>
        <DataArray type="Float64" Name="v">
          0.00000000e+00 -7.91772929e-01 -1.89378022e+00 -2.53056630e+00 0.00000000e+00 -2.51940569e-01 -9.06978960e-01 -1.20406397e+00 0.00000000e+00 -2.16835458e-01 -8.13822130e-01 1.37945447e-01 0.00000000e+00 0.00000000e+00 0.00000000e+00 0.00000000e+00 
        </DataArray>
        <DataArray type="Float64" Name="p">
          -1.25591315e+03 -2.60537235e+03 -3.95483156e+03 -5.30429077e+03 -1.23087122e+03 -2.58391994e+03 -3.93696866e+03 -5.29001739e+03 -1.20582930e+03 -2.56246753e+03 -3.91910577e+03 -5.27574400e+03 -1.18078738e+03 -2.54101513e+03 -3.90124287e+03 -5.26147061e+03 
        </DataArray>
      </PointData>
    </Piece>
    <Piece NumberOfPoints="16" NumberOfCells="9">
      <Points>
        <DataArray type="Float64" NumberOfComponents="3" format="ascii">
          2.50000000e+00 0.00000000e+00 0.00000000e+00 
3.33333325e+00 0.00000000e+00 0.00000000e+00 
4.16666651e+00 0.00000000e+00 0.00000000e+00 
5.00000000e+00 0.00000000e+00 0.00000000e+00 
2.50000000e+00 3.33333343e-01 0.00000000e+00 
3.33333325e+00 3.33333343e-01 0.00000000e+00 
4.16666651e+00 3.33333343e-01 0.00000000e+00 
5.00000000e+00 3.33333343e-01 0.00000000e+00 
2.50000000e+00 6.66666687e-01 0.00000000e+00 
3.33333325e+00 6.66666687e-01 0.00000000e+00 
4.16666651e+00 6.66666687e-01 0.00000000e+00 
5.00000000e+00 6.66666687e-01 0.00000000e+00 
2.50000000e+00 1.00000000e+00 0.00000000e+00 
3.33333325e+00 1.00000000e+00 0.00000000e+00 
4.16666651e+00 1.00000000e+00 0.00000000e+00 
5.00000000e+00 1.00000000e+00 0.00000000e+00 

        </DataArray>
      </Points>
      <Cells>
        <DataArray type="Int32" Name="connectivity" format="ascii">
0 1 5 4
4 5 9 8
8 9 13 12
1 2 6 5
5 6 10 9
9 10 14 13
2 3 7 6
6 7 11 10
10 11 15 14

        </DataArray>
        <DataArray type="Int32" Name="offsets" format="ascii">
4 8 12 16 20 24 28 32 36 
        </DataArray>
        <DataArray type="UInt8" Name="types" format="ascii">
9 9 9 9 9 9 9 9 9 
        </DataArray>
      </Cells>
      <PointData>
        <DataArray type="Float64" Name="u">
          0.00000000e+00 0.00000000e+00 0.00000000e+00 0.00000000e+00 0.00000000e+00 -3.38745623e+00 -5.64168404e+00 -1.02485474e+01 0.00000000e+00 -5.82458121e+00 -9.95704928e+00 -1.70654044e+01 0.00000000e+00 -7.33724291e+00 -1.23412985e+01 -1.98578213e+01 
        </DataArray>
        <DataArray type="Float64" Name="v">
          0.00000000e+00 0.00000000e+00 0.00000000e+00 0.00000000e+00 0.00000000e+00 9.95213061e-01 1.07265820e+00 7.83067736e-01 0.00000000e+00 2.89541004e+00 2.91846021e+00 1.98078107e+00 0.00000000e+00 6.29000688e+00 5.98641012e+00 3.89061960e+00 
        </DataArray>
        <DataArray type="Float64" Name="p">
          -5.74475530e+03 -5.68435388e+03 -5.62395247e+03 -5.56355105e+03 -5.73070361e+03 -5.67018227e+03 -5.60966093e+03 -5.54913959e+03 -5.71665192e+03 -5.65601066e+03 -5.59536940e+03 -5.53472814e+03 -5.70260023e+03 -5.64183905e+03 -5.58107786e+03 -5.52031668e+03 
        </DataArray>
      </PointData>
    </Piece>
    <Piece NumberOfPoints="16" NumberOfCells="9">
      <Points>
        <DataArray type="Float64" NumberOfComponents="3" format="ascii">
          2.50000000e+00 1.00000000e+00 0.00000000e+00 
3.33333325e+00 1.00000000e+00 0.00000000e+00 
4.16666651e+00 1.00000000e+00 0.00000000e+00 
5.00000000e+00 1.00000000e+00 0.00000000e+00 
2.50000000e+00 1.33333337e+00 0.00000000e+00 
3.33333325e+00 1.33333337e+00 0.00000000e+00 
4.16666651e+00 1.33333337e+00 0.00000000e+00 
5.00000000e+00 1.33333337e+00 0.00000000e+00 
2.50000000e+00 1.66666663e+00 0.00000000e+00 
3.33333325e+00 1.66666663e+00 0.00000000e+00 
4.16666651e+00 1.66666663e+00 0.00000000e+00 
5.00000000e+00 1.66666663e+00 0.00000000e+00 
2.50000000e+00 2.00000000e+00 0.00000000e+00 
3.33333325e+00 2.00000000e+00 0.00000000e+00 
4.16666651e+00 2.00000000e+00 0.00000000e+00 
5.00000000e+00 2.00000000e+00 0.00000000e+00 

        </DataArray>
      </Points>
      <Cells>
        <DataArray type="Int32" Name="connectivity" format="ascii">
0 1 5 4
4 5 9 8
8 9 13 12
1 2 6 5
5 6 10 9
9 10 14 13
2 3 7 6
6 7 11 10
10 11 15 14

        </DataArray>
        <DataArray type="Int32" Name="offsets" format="ascii">
4 8 12 16 20 24 28 32 36 
        </DataArray>
        <DataArray type="UInt8" Name="types" format="ascii">
9 9 9 9 9 9 9 9 9 
        </DataArray>
      </Cells>
      <PointData>
        <DataArray type="Float64" Name="u">
          0.00000000e+00 -7.33724291e+00 -1.23412985e+01 -1.98578213e+01 0.00000000e+00 -7.92056461e+00 -1.23742292e+01 -1.84545321e+01 0.00000000e+00 -7.35676770e+00 -9.65190636e+00 -1.23089599e+01 0.00000000e+00 -5.07439202e+00 -3.49240719e+00 -7.90646657e-01 
        </DataArray>
        <DataArray type="Float64" Name="v">
          0.00000000e+00 6.29000688e+00 5.98641012e+00 3.89061960e+00 0.00000000e+00 1.02615947e+01 8.95823570e+00 5.10128645e+00 0.00000000e+00 1.32117017e+01 1.08233293e+01 5.10658118e+00 0.00000000e+00 1.60670796e+01 1.14501751e+01 3.34368406e+00 
        </DataArray>
        <DataArray type="Float64" Name="p">
          -5.68711801e+03 -5.63743418e+03 -5.58775035e+03 -5.53806652e+03 -5.78464875e+03 -5.72320677e+03 -5.66176480e+03 -5.60032282e+03 -5.88217948e+03 -5.80897936e+03 -5.73577924e+03 -5.66257913e+03 -5.97971022e+03 -5.89475196e+03 -5.80979369e+03 -5.72483543e+03 
        </DataArray>
      </PointData>
    </Piece>
    <Piece NumberOfPoints="16" NumberOfCells="9">
      <Points>
        <DataArray type="Float64" NumberOfComponents="3" format="ascii">
          2.50000000e+00 2.00000000e+00 0.00000000e+00 
3.33333325e+00 2.00000000e+00 0.00000000e+00 
4.16666651e+00 2.00000000e+00 0.00000000e+00 
5.00000000e+00 2.00000000e+00 0.00000000e+00 
2.50000000e+00 2.33333325e+00 0.00000000e+00 
3.33333325e+00 2.33333325e+00 0.00000000e+00 
4.16666651e+00 2.33333325e+00 0.00000000e+00 
5.00000000e+00 2.33333325e+00 0.00000000e+00 
2.50000000e+00 2.66666675e+00 0.00000000e+00 
3.33333325e+00 2.66666675e+00 0.00000000e+00 
4.16666651e+00 2.66666675e+00 0.00000000e+00 
5.00000000e+00 2.66666675e+00 0.00000000e+00 
2.50000000e+00 3.00000000e+00 0.00000000e+00 
3.33333325e+00 3.00000000e+00 0.00000000e+00 
4.16666651e+00 3.00000000e+00 0.00000000e+00 
5.00000000e+00 3.00000000e+00 0.00000000e+00 

        </DataArray>
      </Points>
      <Cells>
        <DataArray type="Int32" Name="connectivity" format="ascii">
0 1 5 4
4 5 9 8
8 9 13 12
1 2 6 5
5 6 10 9
9 10 14 13
2 3 7 6
6 7 11 10
10 11 15 14

        </DataArray>
        <DataArray type="Int32" Name="offsets" format="ascii">
4 8 12 16 20 24 28 32 36 
        </DataArray>
        <DataArray type="UInt8" Name="types" format="ascii">
9 9 9 9 9 9 9 9 9 
        </DataArray>
      </Cells>
      <PointData>
        <DataArray type="Float64" Name="u">
          0.00000000e+00 -5.07439202e+00 -3.49240719e+00 -7.90646657e-01 0.00000000e+00 2.15826645e-01 6.74882298e+00 1.84627409e+01 0.00000000e+00 1.46587652e+01 2.59911666e+01 4.52650085e+01 0.00000000e+00 5.16557444e+01 6.08385887e+01 8.21204965e+01 
        </DataArray>
        <DataArray type="Float64" Name="v">
          0.00000000e+00 1.60670796e+01 1.14501751e+01 3.34368406e+00 0.00000000e+00 1.71304893e+01 8.44018936e+00 -1.30018397e+00 0.00000000e+00 1.26734516e+01 4.21420704e+00 -5.13152447e+00 0.00000000e+00 -3.91496488e-01 -4.50063726e+00 -8.43338983e+00 
        </DataArray>
        <DataArray type="Float64" Name="p">
          -5.93434940e+03 -5.90576566e+03 -5.87718191e+03 -5.84859817e+03 -6.29218322e+03 -6.07594402e+03 -5.85970482e+03 -5.64346561e+03 -6.65001704e+03 -6.24612238e+03 -5.84222772e+03 -5.43833306e+03 -7.00785086e+03 -6.41630074e+03 -5.82475062e+03 -5.23320050e+03 
        </DataArray>
      </PointData>
    </Piece>
    <Piece NumberOfPoints="16" NumberOfCells="9">
      <Points>
        <DataArray type="Float64" NumberOfComponents="3" format="ascii">
          2.50000000e+00 3.00000000e+00 0.00000000e+00 
3.33333325e+00 3.00000000e+00 0.00000000e+00 
4.16666651e+00 3.00000000e+00 0.00000000e+00 
5.00000000e+00 3.00000000e+00 0.00000000e+00 
2.50000000e+00 3.33333325e+00 0.00000000e+00 
3.33333325e+00 3.33333325e+00 0.00000000e+00 
4.16666651e+00 3.33333325e+00 0.00000000e+00 
5.00000000e+00 3.33333325e+00 0.00000000e+00 
2.50000000e+00 3.66666675e+00 0.00000000e+00 
3.33333325e+00 3.66666675e+00 0.00000000e+00 
4.16666651e+00 3.66666675e+00 0.00000000e+00 
5.00000000e+00 3.66666675e+00 0.00000000e+00 
2.50000000e+00 4.00000000e+00 0.00000000e+00 
3.33333325e+00 4.00000000e+00 0.00000000e+00 
4.16666651e+00 4.00000000e+00 0.00000000e+00 
5.00000000e+00 4.00000000e+00 0.00000000e+00 

        </DataArray>
      </Points>
      <Cells>
        <DataArray type="Int32" Name="connectivity" format="ascii">
0 1 5 4
4 5 9 8
8 9 13 12
1 2 6 5
5 6 10 9
9 10 14 13
2 3 7 6
6 7 11 10
10 11 15 14

        </DataArray>
        <DataArray type="Int32" Name="offsets" format="ascii">
4 8 12 16 20 24 28 32 36 
        </DataArray>
        <DataArray type="UInt8" Name="types" format="ascii">
9 9 9 9 9 9 9 9 9 
        </DataArray>
      </Cells>
      <PointData>
        <DataArray type="Float64" Name="u">
          0.00000000e+00 5.16557444e+01 6.08385887e+01 8.21204965e+01 9.64700076e+01 1.03139784e+02 1.11678032e+02 1.20825572e+02 1.60407593e+02 1.57722389e+02 1.60997507e+02 1.61197270e+02 2.01814111e+02 1.95600999e+02 1.96691741e+02 1.90412799e+02 
        </DataArray>
        <DataArray type="Float64" Name="v">
          0.00000000e+00 -3.91496488e-01 -4.50063726e+00 -8.43338983e+00 -3.34056097e+00 -1.07474174e+01 -1.09526123e+01 -9.41773886e+00 -3.00621708e+00 -1.11729373e+01 -1.28407979e+01 -1.09764056e+01 -4.24635967e+00 -9.90131537e+00 -1.17763356e+01 -1.22924433e+01 
        </DataArray>
        <DataArray type="Float64" Name="p">
          -7.10890207e+03 -6.42569822e+03 -5.74249438e+03 -5.05929054e+03 -6.47598763e+03 -6.08045727e+03 -5.68492692e+03 -5.28939657e+03 -5.84307319e+03 -5.73521633e+03 -5.62735947e+03 -5.51950261e+03 -5.21015875e+03 -5.38997538e+03 -5.56979201e+03 -5.74960864e+03 
        </DataArray>
      </PointData>
    </Piece>
    <Piece NumberOfPoints="16" NumberOfCells="9">
      <Points>
        <DataArray type="Float64" NumberOfComponents="3" format="ascii">
          2.50000000e+00 4.00000000e+00 0.00000000e+00 
3.33333325e+00 4.00000000e+00 0.00000000e+00 
4.16666651e+00 4.00000000e+00 0.00000000e+00 
5.00000000e+00 4.00000000e+00 0.00000000e+00 
2.50000000e+00 4.33333349e+00 0.00000000e+00 
3.33333325e+00 4.33333349e+00 0.00000000e+00 
4.16666651e+00 4.33333349e+00 0.00000000e+00 
5.00000000e+00 4.33333349e+00 0.00000000e+00 
2.50000000e+00 4.66666651e+00 0.00000000e+00 
3.33333325e+00 4.66666651e+00 0.00000000e+00 
4.16666651e+00 4.66666651e+00 0.00000000e+00 
5.00000000e+00 4.66666651e+00 0.00000000e+00 
2.50000000e+00 5.00000000e+00 0.00000000e+00 
3.33333325e+00 5.00000000e+00 0.00000000e+00 
4.16666651e+00 5.00000000e+00 0.00000000e+00 
5.00000000e+00 5.00000000e+00 0.00000000e+00 

        </DataArray>
      </Points>
      <Cells>
        <DataArray type="Int32" Name="connectivity" format="ascii">
0 1 5 4
4 5 9 8
8 9 13 12
1 2 6 5
5 6 10 9
9 10 14 13
2 3 7 6
6 7 11 10
10 11 15 14

        </DataArray>
        <DataArray type="Int32" Name="offsets" format="ascii">
4 8 12 16 20 24 28 32 36 
        </DataArray>
        <DataArray type="UInt8" Name="types" format="ascii">
9 9 9 9 9 9 9 9 9 
        </DataArray>
      </Cells>
      <PointData>
        <DataArray type="Float64" Name="u">
          2.01814111e+02 1.95600999e+02 1.96691741e+02 1.90412799e+02 2.21620324e+02 2.13731609e+02 2.11876521e+02 2.03264248e+02 2.19455619e+02 2.10675056e+02 2.07084740e+02 1.96809116e+02 1.95645880e+02 1.87130430e+02 1.82980421e+02 1.72496750e+02 
        </DataArray>
        <DataArray type="Float64" Name="v">
          -4.24635967e+00 -9.90131537e+00 -1.17763356e+01 -1.22924433e+01 -3.73683808e+00 -6.24109192e+00 -9.12461983e+00 -1.14269427e+01 -3.80343710e+00 -5.11940676e+00 -6.50741672e+00 -8.88892908e+00 -2.53056630e+00 -5.38811076e-01 -2.66739192e+00 -6.39930970e+00 
        </DataArray>
        <DataArray type="Float64" Name="p">
          -5.01666951e+03 -5.27121086e+03 -5.52575221e+03 -5.78029356e+03 -4.84929077e+03 -5.07856219e+03 -5.30783361e+03 -5.53710504e+03 -4.68191203e+03 -4.88591352e+03 -5.08991501e+03 -5.29391651e+03 -4.51453329e+03 -4.69326485e+03 -4.87199641e+03 -5.05072798e+03 
        </DataArray>
      </PointData>
    </Piece>
    <Piece NumberOfPoints="16" NumberOfCells="9">
      <Points>
        <DataArray type="Float64" NumberOfComponents="3" format="ascii">
          2.50000000e+00 5.00000000e+00 0.00000000e+00 
3.33333325e+00 5.00000000e+00 0.00000000e+00 
4.16666651e+00 5.00000000e+00 0.00000000e+00 
5.00000000e+00 5.00000000e+00 0.00000000e+00 
2.50000000e+00 5.33333349e+00 0.00000000e+00 
3.33333325e+00 5.33333349e+00 0.00000000e+00 
4.16666651e+00 5.33333349e+00 0.00000000e+00 
5.00000000e+00 5.33333349e+00 0.00000000e+00 
2.50000000e+00 5.66666651e+00 0.00000000e+00 
3.33333325e+00 5.66666651e+00 0.00000000e+00 
4.16666651e+00 5.66666651e+00 0.00000000e+00 
5.00000000e+00 5.66666651e+00 0.00000000e+00 
2.50000000e+00 6.00000000e+00 0.00000000e+00 
3.33333325e+00 6.00000000e+00 0.00000000e+00 
4.16666651e+00 6.00000000e+00 0.00000000e+00 
5.00000000e+00 6.00000000e+00 0.00000000e+00 

        </DataArray>
      </Points>
      <Cells>
        <DataArray type="Int32" Name="connectivity" format="ascii">
0 1 5 4
4 5 9 8
8 9 13 12
1 2 6 5
5 6 10 9
9 10 14 13
2 3 7 6
6 7 11 10
10 11 15 14

        </DataArray>
        <DataArray type="Int32" Name="offsets" format="ascii">
4 8 12 16 20 24 28 32 36 
        </DataArray>
        <DataArray type="UInt8" Name="types" format="ascii">
9 9 9 9 9 9 9 9 9 
        </DataArray>
      </Cells>
      <PointData>
        <DataArray type="Float64" Name="u">
          1.95645880e+02 1.87130430e+02 1.82980421e+02 1.72496750e+02 1.51219153e+02 1.44565433e+02 1.40929189e+02 1.34676890e+02 8.58539769e+01 8.90919607e+01 8.99708130e+01 9.21193860e+01 0.00000000e+00 4.17990523e+01 4.42320741e+01 5.75981757e+01 
        </DataArray>
        <DataArray type="Float64" Name="v">
          -2.53056630e+00 -5.38811076e-01 -2.66739192e+00 -6.39930970e+00 -1.20406397e+00 3.07247099e+00 1.35249466e+00 -3.71894240e+00 1.37945447e-01 3.01140917e+00 1.78180918e-01 -3.12643660e+00 0.00000000e+00 -4.20283455e+00 -2.30831063e+00 -4.62443237e-01 
        </DataArray>
        <DataArray type="Float64" Name="p">
          -4.65712038e+03 -4.73968950e+03 -4.82225861e+03 -4.90482772e+03 -5.03919136e+03 -4.89570642e+03 -4.75222149e+03 -4.60873655e+03 -5.42126233e+03 -5.05172335e+03 -4.68218437e+03 -4.31264538e+03 -5.80333331e+03 -5.20774028e+03 -4.61214725e+03 -4.01655422e+03 
        </DataArray>
      </PointData>
    </Piece>
    <Piece NumberOfPoints="16" NumberOfCells="9">
      <Points>
        <DataArray type="Float64" NumberOfComponents="3" format="ascii">
          2.50000000e+00 6.00000000e+00 0.00000000e+00 
3.33333325e+00 6.00000000e+00 0.00000000e+00 
4.16666651e+00 6.00000000e+00 0.00000000e+00 
5.00000000e+00 6.00000000e+00 0.00000000e+00 
2.50000000e+00 6.33333349e+00 0.00000000e+00 
3.33333325e+00 6.33333349e+00 0.00000000e+00 
4.16666651e+00 6.33333349e+00 0.00000000e+00 
5.00000000e+00 6.33333349e+00 0.00000000e+00 
2.50000000e+00 6.66666651e+00 0.00000000e+00 
3.33333325e+00 6.66666651e+00 0.00000000e+00 
4.16666651e+00 6.66666651e+00 0.00000000e+00 
5.00000000e+00 6.66666651e+00 0.00000000e+00 
2.50000000e+00 7.00000000e+00 0.00000000e+00 
3.33333325e+00 7.00000000e+00 0.00000000e+00 
4.16666651e+00 7.00000000e+00 0.00000000e+00 
5.00000000e+00 7.00000000e+00 0.00000000e+00 

        </DataArray>
      </Points>
      <Cells>
        <DataArray type="Int32" Name="connectivity" format="ascii">
0 1 5 4
4 5 9 8
8 9 13 12
1 2 6 5
5 6 10 9
9 10 14 13
2 3 7 6
6 7 11 10
10 11 15 14

        </DataArray>
        <DataArray type="Int32" Name="offsets" format="ascii">
4 8 12 16 20 24 28 32 36 
        </DataArray>
        <DataArray type="UInt8" Name="types" format="ascii">
9 9 9 9 9 9 9 9 9 
        </DataArray>
      </Cells>
      <PointData>
        <DataArray type="Float64" Name="u">
          0.00000000e+00 4.17990523e+01 4.42320741e+01 5.75981757e+01 0.00000000e+00 1.04112210e+01 1.62586263e+01 2.73254687e+01 0.00000000e+00 -1.39068771e+00 1.37899068e+00 6.72769978e+00 0.00000000e+00 -5.49278330e+00 -6.17915642e+00 -6.96903905e+00 
        </DataArray>
        <DataArray type="Float64" Name="v">
          0.00000000e+00 -4.20283455e+00 -2.30831063e+00 -4.62443237e-01 0.00000000e+00 -1.38045273e+01 -7.59659265e+00 -1.21161786e+00 0.00000000e+00 -1.64513754e+01 -9.52102126e+00 -2.80186001e+00 0.00000000e+00 -1.46818913e+01 -1.07214944e+01 -4.90117869e+00 
        </DataArray>
        <DataArray type="Float64" Name="p">
          -5.76645197e+03 -5.26211505e+03 -4.75777813e+03 -4.25344122e+03 -5.45194182e+03 -5.10157625e+03 -4.75121068e+03 -4.40084511e+03 -5.13743168e+03 -4.94103745e+03 -4.74464322e+03 -4.54824900e+03 -4.82292153e+03 -4.78049865e+03 -4.73807577e+03 -4.69565288e+03 
        </DataArray>
      </PointData>
    </Piece>
    <Piece NumberOfPoints="16" NumberOfCells="9">
      <Points>
        <DataArray type="Float64" NumberOfComponents="3" format="ascii">
          2.50000000e+00 7.00000000e+00 0.00000000e+00 
3.33333325e+00 7.00000000e+00 0.00000000e+00 
4.16666651e+00 7.00000000e+00 0.00000000e+00 
5.00000000e+00 7.00000000e+00 0.00000000e+00 
2.50000000e+00 7.33333349e+00 0.00000000e+00 
3.33333325e+00 7.33333349e+00 0.00000000e+00 
4.16666651e+00 7.33333349e+00 0.00000000e+00 
5.00000000e+00 7.33333349e+00 0.00000000e+00 
2.50000000e+00 7.66666651e+00 0.00000000e+00 
3.33333325e+00 7.66666651e+00 0.00000000e+00 
4.16666651e+00 7.66666651e+00 0.00000000e+00 
5.00000000e+00 7.66666651e+00 0.00000000e+00 
2.50000000e+00 8.00000000e+00 0.00000000e+00 
3.33333325e+00 8.00000000e+00 0.00000000e+00 
4.16666651e+00 8.00000000e+00 0.00000000e+00 
5.00000000e+00 8.00000000e+00 0.00000000e+00 

        </DataArray>
      </Points>
      <Cells>
        <DataArray type="Int32" Name="connectivity" format="ascii">
0 1 5 4
4 5 9 8
8 9 13 12
1 2 6 5
5 6 10 9
9 10 14 13
2 3 7 6
6 7 11 10
10 11 15 14

        </DataArray>
        <DataArray type="Int32" Name="offsets" format="ascii">
4 8 12 16 20 24 28 32 36 
        </DataArray>
        <DataArray type="UInt8" Name="types" format="ascii">
9 9 9 9 9 9 9 9 9 
        </DataArray>
      </Cells>
      <PointData>
        <DataArray type="Float64" Name="u">
          0.00000000e+00 -5.49278330e+00 -6.17915642e+00 -6.96903905e+00 0.00000000e+00 -6.98235795e+00 -1.02548436e+01 -1.42691727e+01 0.00000000e+00 -7.03748494e+00 -1.15467567e+01 -1.73999805e+01 0.00000000e+00 -6.21968428e+00 -1.07657020e+01 -1.70950851e+01 
        </DataArray>
        <DataArray type="Float64" Name="v">
          0.00000000e+00 -1.46818913e+01 -1.07214944e+01 -4.90117869e+00 0.00000000e+00 -1.16109423e+01 -9.40396606e+00 -5.16271667e+00 0.00000000e+00 -8.80046207e+00 -7.48703983e+00 -4.49007500e+00 0.00000000e+00 -5.25705613e+00 -4.86313050e+00 -3.12214218e+00 
        </DataArray>
        <DataArray type="Float64" Name="p">
          -4.85454706e+03 -4.77068465e+03 -4.68682224e+03 -4.60295983e+03 -4.76725249e+03 -4.70030421e+03 -4.63335594e+03 -4.56640766e+03 -4.67995792e+03 -4.62992378e+03 -4.57988964e+03 -4.52985549e+03 -4.59266335e+03 -4.55954334e+03 -4.52642333e+03 -4.49330332e+03 
        </DataArray>
      </PointData>
    </Piece>
    <Piece NumberOfPoints="16" NumberOfCells="9">
      <Points>
        <DataArray type="Float64" NumberOfComponents="3" format="ascii">
          2.50000000e+00 8.00000000e+00 0.00000000e+00 
3.33333325e+00 8.00000000e+00 0.00000000e+00 
4.16666651e+00 8.00000000e+00 0.00000000e+00 
5.00000000e+00 8.00000000e+00 0.00000000e+00 
2.50000000e+00 8.33333302e+00 0.00000000e+00 
3.33333325e+00 8.33333302e+00 0.00000000e+00 
4.16666651e+00 8.33333302e+00 0.00000000e+00 
5.00000000e+00 8.33333302e+00 0.00000000e+00 
2.50000000e+00 8.66666698e+00 0.00000000e+00 
3.33333325e+00 8.66666698e+00 0.00000000e+00 
4.16666651e+00 8.66666698e+00 0.00000000e+00 
5.00000000e+00 8.66666698e+00 0.00000000e+00 
2.50000000e+00 9.00000000e+00 0.00000000e+00 
3.33333325e+00 9.00000000e+00 0.00000000e+00 
4.16666651e+00 9.00000000e+00 0.00000000e+00 
5.00000000e+00 9.00000000e+00 0.00000000e+00 

        </DataArray>
      </Points>
      <Cells>
        <DataArray type="Int32" Name="connectivity" format="ascii">
0 1 5 4
4 5 9 8
8 9 13 12
1 2 6 5
5 6 10 9
9 10 14 13
2 3 7 6
6 7 11 10
10 11 15 14

        </DataArray>
        <DataArray type="Int32" Name="offsets" format="ascii">
4 8 12 16 20 24 28 32 36 
        </DataArray>
        <DataArray type="UInt8" Name="types" format="ascii">
9 9 9 9 9 9 9 9 9 
        </DataArray>
      </Cells>
      <PointData>
        <DataArray type="Float64" Name="u">
          0.00000000e+00 -6.21968428e+00 -1.07657020e+01 -1.70950851e+01 0.00000000e+00 -4.77920901e+00 -8.35872324e+00 -1.39742814e+01 0.00000000e+00 -2.71726216e+00 -4.62914544e+00 -8.22960862e+00 0.00000000e+00 0.00000000e+00 0.00000000e+00 0.00000000e+00 
        </DataArray>
        <DataArray type="Float64" Name="v">
          0.00000000e+00 -5.25705613e+00 -4.86313050e+00 -3.12214218e+00 0.00000000e+00 -2.38760260e+00 -2.37107256e+00 -1.51386982e+00 0.00000000e+00 -7.96066395e-01 -8.53608453e-01 -5.42818616e-01 0.00000000e+00 0.00000000e+00 0.00000000e+00 0.00000000e+00 
        </DataArray>
        <DataArray type="Float64" Name="p">
          -4.60844686e+03 -4.56694140e+03 -4.52543594e+03 -4.48393048e+03 -4.62136538e+03 -4.57975966e+03 -4.53815393e+03 -4.49654821e+03 -4.63428390e+03 -4.59257791e+03 -4.55087192e+03 -4.50916593e+03 -4.64720242e+03 -4.60539617e+03 -4.56358991e+03 -4.52178366e+03 
        </DataArray>
      </PointData>
    </Piece>
    <Piece NumberOfPoints="16" NumberOfCells="9">
      <Points>
        <DataArray type="Float64" NumberOfComponents="3" format="ascii">
          5.00000000e+00 0.00000000e+00 0.00000000e+00 
5.83333349e+00 0.00000000e+00 0.00000000e+00 
6.66666651e+00 0.00000000e+00 0.00000000e+00 
7.50000000e+00 0.00000000e+00 0.00000000e+00 
5.00000000e+00 3.33333343e-01 0.00000000e+00 
5.83333349e+00 3.33333343e-01 0.00000000e+00 
6.66666651e+00 3.33333343e-01 0.00000000e+00 
7.50000000e+00 3.33333343e-01 0.00000000e+00 
5.00000000e+00 6.66666687e-01 0.00000000e+00 
5.83333349e+00 6.66666687e-01 0.00000000e+00 
6.66666651e+00 6.66666687e-01 0.00000000e+00 
7.50000000e+00 6.66666687e-01 0.00000000e+00 
5.00000000e+00 1.00000000e+00 0.00000000e+00 
5.83333349e+00 1.00000000e+00 0.00000000e+00 
6.66666651e+00 1.00000000e+00 0.00000000e+00 
7.50000000e+00 1.00000000e+00 0.00000000e+00 

        </DataArray>
      </Points>
      <Cells>
        <DataArray type="Int32" Name="connectivity" format="ascii">
0 1 5 4
4 5 9 8
8 9 13 12
1 2 6 5
5 6 10 9
9 10 14 13
2 3 7 6
6 7 11 10
10 11 15 14

        </DataArray>
        <DataArray type="Int32" Name="offsets" format="ascii">
4 8 12 16 20 24 28 32 36 
        </DataArray>
        <DataArray type="UInt8" Name="types" format="ascii">
9 9 9 9 9 9 9 9 9 
        </DataArray>
      </Cells>
      <PointData>
        <DataArray type="Float64" Name="u">