<?xml version="1.0"?>
<VTKFile type="UnstructuredGrid" version="0.1" byte_order="LittleEndian">
  <UnstructuredGrid>
    <Piece NumberOfPoints="16" NumberOfCells="9">
      <Points>
        <DataArray type="Float64" NumberOfComponents="3" format="ascii">
          0.00000000e+00 3.00000000e+00 0.00000000e+00 
8.33333313e-01 3.00000000e+00 0.00000000e+00 
1.66666663e+00 3.00000000e+00 0.00000000e+00 
2.50000000e+00 3.00000000e+00 0.00000000e+00 
0.00000000e+00 3.33333325e+00 0.00000000e+00 
8.33333313e-01 3.33333325e+00 0.00000000e+00 
1.66666663e+00 3.33333325e+00 0.00000000e+00 
2.50000000e+00 3.33333325e+00 0.00000000e+00 
0.00000000e+00 3.66666675e+00 0.00000000e+00 
8.33333313e-01 3.66666675e+00 0.00000000e+00 
1.66666663e+00 3.66666675e+00 0.00000000e+00 
2.50000000e+00 3.66666675e+00 0.00000000e+00 
0.00000000e+00 4.00000000e+00 0.00000000e+00 
8.33333313e-01 4.00000000e+00 0.00000000e+00 
1.66666663e+00 4.00000000e+00 0.00000000e+00 
2.50000000e+00 4.00000000e+00 0.00000000e+00 

        </DataArray>
      </Points>
      <Cells>
        <DataArray type="Int32" Name="connectivity" format="ascii">
0 1 5 4
4 5 9 8
8 9 13 12
1 2 6 5
5 6 10 9
9 10 14 13
2 3 7 6
6 7 11 10
10 11 15 14

        </DataArray>
        <DataArray type="Int32" Name="offsets" format="ascii">
4 8 12 16 20 24 28 32 36 
        </DataArray>
        <DataArray type="UInt8" Name="types" format="ascii">
9 9 9 9 9 9 9 9 9 
        </DataArray>
      </Cells>
      <PointData>
        <DataArray type="Float64" Name="u">
          0.00000000e+00 0.00000000e+00 0.00000000e+00 0.00000000e+00 8.88888889e+01 8.69276166e+01 8.73426327e+01 8.17353854e+01 1.55555556e+02 1.53024923e+02 1.53856883e+02 1.48233678e+02 2.00000000e+02 1.97588442e+02 1.98515501e+02 1.93939212e+02 
        </DataArray>
        <DataArray type="Float64" Name="v">
          0.00000000e+00 0.00000000e+00 0.00000000e+00 0.00000000e+00 0.00000000e+00 6.22466304e-01 1.51341266e+00 1.24271902e+00 0.00000000e+00 6.03427189e-01 1.68198554e+00 2.75609778e+00 0.00000000e+00 1.61165258e+00 3.38861120e+00 4.79398106e+00 
        </DataArray>
        <DataArray type="Float64" Name="p">
          -1.94047442e+03 -3.04516215e+03 -4.14984989e+03 -5.25453762e+03 -1.97562905e+03 -3.08468315e+03 -4.19373724e+03 -5.30279133e+03 -2.01078369e+03 -3.12420414e+03 -4.23762459e+03 -5.35104504e+03 -2.04593833e+03 -3.16372514e+03 -4.28151194e+03 -5.39929874e+03 
        </DataArray>
      </PointData>
    </Piece>
    <Piece NumberOfPoints="16" NumberOfCells="9">
      <Points>
        <DataArray type="Float64" NumberOfComponents="3" format="ascii">
          0.00000000e+00 4.00000000e+00 0.00000000e+00 
8.33333313e-01 4.00000000e+00 0.00000000e+00 
1.66666663e+00 4.00000000e+00 0.00000000e+00 
2.50000000e+00 4.00000000e+00 0.00000000e+00 
0.00000000e+00 4.33333349e+00 0.00000000e+00 
8.33333313e-01 4.33333349e+00 0.00000000e+00 
1.66666663e+00 4.33333349e+00 0.00000000e+00 
2.50000000e+00 4.33333349e+00 0.00000000e+00 
0.00000000e+00 4.66666651e+00 0.00000000e+00 
8.33333313e-01 4.66666651e+00 0.00000000e+00 
1.66666663e+00 4.66666651e+00 0.00000000e+00 
2.50000000e+00 4.66666651e+00 0.00000000e+00 
0.00000000e+00 5.00000000e+00 0.00000000e+00 
8.33333313e-01 5.00000000e+00 0.00000000e+00 
1.66666663e+00 5.00000000e+00 0.00000000e+00 
2.50000000e+00 5.00000000e+00 0.00000000e+00 

        </DataArray>
      </Points>
      <Cells>
        <DataArray type="Int32" Name="connectivity" format="ascii">
0 1 5 4
4 5 9 8
8 9 13 12
1 2 6 5
5 6 10 9
9 10 14 13
2 3 7 6
6 7 11 10
10 11 15 14

        </DataArray>
        <DataArray type="Int32" Name="offsets" format="ascii">
4 8 12 16 20 24 28 32 36 
        </DataArray>
        <DataArray type="UInt8" Name="types" format="ascii">
9 9 9 9 9 9 9 9 9 
        </DataArray>
      </Cells>
      <PointData>
        <DataArray type="Float64" Name="u">
          2.00000000e+02 1.97588442e+02 1.98515501e+02 1.93939212e+02 2.22222222e+02 2.20650618e+02 2.21470068e+02 2.19055145e+02 2.22222222e+02 2.21790764e+02 2.22735785e+02 2.22549780e+02 2.00000000e+02 2.00752230e+02 2.01877404e+02 2.03992291e+02 
        </DataArray>
        <DataArray type="Float64" Name="v">
          0.00000000e+00 1.61165258e+00 3.38861120e+00 4.79398106e+00 0.00000000e+00 2.26047766e+00 4.13178879e+00 6.14722258e+00 0.00000000e+00 2.25924847e+00 4.31075984e+00 6.07704122e+00 0.00000000e+00 2.15445570e+00 3.77766872e+00 6.23322204e+00 
        </DataArray>
        <DataArray type="Float64" Name="p">
          -2.04581073e+03 -3.18284091e+03 -4.31987108e+03 -5.45690126e+03 -2.24497907e+03 -3.37219855e+03 -4.49941802e+03 -5.62663750e+03 -2.44414742e+03 -3.56155619e+03 -4.67896496e+03 -5.79637374e+03 -2.64331576e+03 -3.75091383e+03 -4.85851190e+03 -5.96610997e+03 
        </DataArray>
      </PointData>
    </Piece>
    <Piece NumberOfPoints="16" NumberOfCells="9">
      <Points>
        <DataArray type="Float64" NumberOfComponents="3" format="ascii">
          0.00000000e+00 5.00000000e+00 0.00000000e+00 
8.33333313e-01 5.00000000e+00 0.00000000e+00 
1.66666663e+00 5.00000000e+00 0.00000000e+00 
2.50000000e+00 5.00000000e+00 0.00000000e+00 
0.00000000e+00 5.33333349e+00 0.00000000e+00 
8.33333313e-01 5.33333349e+00 0.00000000e+00 
1.66666663e+00 5.33333349e+00 0.00000000e+00 
2.50000000e+00 5.33333349e+00 0.00000000e+00 
0.00000000e+00 5.66666651e+00 0.00000000e+00 
8.33333313e-01 5.66666651e+00 0.00000000e+00 
1.66666663e+00 5.66666651e+00 0.00000000e+00 
2.50000000e+00 5.66666651e+00 0.00000000e+00 
0.00000000e+00 6.00000000e+00 0.00000000e+00 
8.33333313e-01 6.00000000e+00 0.00000000e+00 
1.66666663e+00 6.00000000e+00 0.00000000e+00 
2.50000000e+00 6.00000000e+00 0.00000000e+00 

        </DataArray>
      </Points>
      <Cells>
        <DataArray type="Int32" Name="connectivity" format="ascii">
0 1 5 4
4 5 9 8
8 9 13 12
1 2 6 5
5 6 10 9
9 10 14 13
2 3 7 6
6 7 11 10
10 11 15 14

        </DataArray>
        <DataArray type="Int32" Name="offsets" format="ascii">
4 8 12 16 20 24 28 32 36 
        </DataArray>
        <DataArray type="UInt8" Name="types" format="ascii">
9 9 9 9 9 9 9 9 9 
        </DataArray>
      </Cells>
      <PointData>
        <DataArray type="Float64" Name="u">
          2.00000000e+02 2.00752230e+02 2.01877404e+02 2.03992291e+02 1.55555556e+02 1.57874527e+02 1.58324124e+02 1.63214213e+02 8.88888889e+01 9.21059524e+01 9.14070557e+01 9.99241303e+01 0.00000000e+00 0.00000000e+00 0.00000000e+00 0.00000000e+00 
        </DataArray>
        <DataArray type="Float64" Name="v">
          0.00000000e+00 2.15445570e+00 3.77766872e+00 6.23322204e+00 0.00000000e+00 9.55180113e-01 2.17563003e+00 4.04177277e+00 0.00000000e+00 1.11596418e+00 1.60259324e+00 4.11981079e+00 0.00000000e+00 0.00000000e+00 0.00000000e+00 0.00000000e+00 
        </DataArray>
        <DataArray type="Float64" Name="p">
          -2.68198170e+03 -3.79097898e+03 -4.89997626e+03 -6.00897355e+03 -2.70660861e+03 -3.83767593e+03 -4.96874325e+03 -6.09981057e+03 -2.73123553e+03 -3.88437288e+03 -5.03751024e+03 -6.19064759e+03 -2.75586244e+03 -3.93106983e+03 -5.10627722e+03 -6.28148461e+03 
        </DataArray>
      </PointData>
    </Piece>
    <Piece NumberOfPoints="16" NumberOfCells="9">
      <Points>
        <DataArray type="Float64" NumberOfComponents="3" format="ascii">
          2.50000000e+00 0.00000000e+00 0.00000000e+00 
3.33333325e+00 0.00000000e+00 0.00000000e+00 
4.16666651e+00 0.00000000e+00 0.00000000e+00 
5.00000000e+00 0.00000000e+00 0.00000000e+00 
2.50000000e+00 3.33333343e-01 0.00000000e+00 
3.33333325e+00 3.33333343e-01 0.00000000e+00 
4.16666651e+00 3.33333343e-01 0.00000000e+00 
5.00000000e+00 3.33333343e-01 0.00000000e+00 
2.50000000e+00 6.66666687e-01 0.00000000e+00 
3.33333325e+00 6.66666687e-01 0.00000000e+00 
4.16666651e+00 6.66666687e-01 0.00000000e+00 
5.00000000e+00 6.66666687e-01 0.00000000e+00 
2.50000000e+00 1.00000000e+00 0.00000000e+00 
3.33333325e+00 1.00000000e+00 0.00000000e+00 
4.16666651e+00 1.00000000e+00 0.00000000e+00 
5.00000000e+00 1.00000000e+00 0.00000000e+00 

        </DataArray>
      </Points>
      <Cells>
        <DataArray type="Int32" Name="connectivity" format="ascii">
0 1 5 4
4 5 9 8
8 9 13 12
1 2 6 5
5 6 10 9
9 10 14 13
2 3 7 6
6 7 11 10
10 11 15 14

        </DataArray>
        <DataArray type="Int32" Name="offsets" format="ascii">
4 8 12 16 20 24 28 32 36 
        </DataArray>
        <DataArray type="UInt8" Name="types" format="ascii">
9 9 9 9 9 9 9 9 9 
        </DataArray>
      </Cells>
      <PointData>
        <DataArray type="Float64" Name="u">
          0.00000000e+00 0.00000000e+00 0.00000000e+00 0.00000000e+00 0.00000000e+00 -2.21920306e+00 -3.95051428e+00 -6.96643088e+00 0.00000000e+00 -3.99927650e+00 -7.28021363e+00 -1.20927731e+01 0.00000000e+00 -5.33788282e+00 -9.62643758e+00 -1.52279194e+01 
        </DataArray>
        <DataArray type="Float64" Name="v">
          0.00000000e+00 0.00000000e+00 0.00000000e+00 0.00000000e+00 0.00000000e+00 6.59347411e-01 7.16323964e-01 4.66741444e-01 0.00000000e+00 2.02208288e+00 2.02835779e+00 1.34003795e+00 0.00000000e+00 4.50679105e+00 4.20928775e+00 2.81397613e+00 
        </DataArray>
        <DataArray type="Float64" Name="p">
          -4.65329630e+03 -4.63095634e+03 -4.60861638e+03 -4.58627643e+03 -4.64380840e+03 -4.62143703e+03 -4.59906566e+03 -4.57669430e+03 -4.63432050e+03 -4.61191772e+03 -4.58951495e+03 -4.56711217e+03 -4.62483261e+03 -4.60239842e+03 -4.57996423e+03 -4.55753004e+03 
        </DataArray>
      </PointData>
    </Piece>
    <Piece NumberOfPoints="16" NumberOfCells="9">
      <Points>
        <DataArray type="Float64" NumberOfComponents="3" format="ascii">
          2.50000000e+00 1.00000000e+00 0.00000000e+00 
3.33333325e+00 1.00000000e+00 0.00000000e+00 
4.16666651e+00 1.00000000e+00 0.00000000e+00 
5.00000000e+00 1.00000000e+00 0.00000000e+00 
2.50000000e+00 1.33333337e+00 0.00000000e+00 
3.33333325e+00 1.33333337e+00 0.00000000e+00 
4.16666651e+00 1.33333337e+00 0.00000000e+00 
5.00000000e+00 1.33333337e+00 0.00000000e+00 
2.50000000e+00 1.66666663e+00 0.00000000e+00 
3.33333325e+00 1.66666663e+00 0.00000000e+00 
4.16666651e+00 1.66666663e+00 0.00000000e+00 
5.00000000e+00 1.66666663e+00 0.00000000e+00 
2.50000000e+00 2.00000000e+00 0.00000000e+00 
3.33333325e+00 2.00000000e+00 0.00000000e+00 
4.16666651e+00 2.00000000e+00 0.00000000e+00 
5.00000000e+00 2.00000000e+00 0.00000000e+00 

        </DataArray>
      </Points>
      <Cells>
        <DataArray type="Int32" Name="connectivity" format="ascii">
0 1 5 4
4 5 9 8
8 9 13 12
1 2 6 5
5 6 10 9
9 10 14 13
2 3 7 6
6 7 11 10
10 11 15 14

        </DataArray>
        <DataArray type="Int32" Name="offsets" format="ascii">
4 8 12 16 20 24 28 32 36 
        </DataArray>
        <DataArray type="UInt8" Name="types" format="ascii">
9 9 9 9 9 9 9 9 9 
        </DataArray>
      </Cells>
      <PointData>
        <DataArray type="Float64" Name="u">
          0.00000000e+00 -5.33788282e+00 -9.62643758e+00 -1.52279194e+01 0.00000000e+00 -6.21383682e+00 -1.07030042e+01 -1.61678503e+01 0.00000000e+00 -6.40333904e+00 -1.00811744e+01 -1.43003162e+01 0.00000000e+00 -5.41947286e+00 -7.07912683e+00 -8.88201057e+00 
        </DataArray>
        <DataArray type="Float64" Name="v">
          0.00000000e+00 4.50679105e+00 4.20928775e+00 2.81397613e+00 0.00000000e+00 7.68300280e+00 6.61552662e+00 4.19650137e+00 0.00000000e+00 1.02873687e+01 8.46842097e+00 5.04552648e+00 0.00000000e+00 1.33105972e+01 9.99622315e+00 5.24752316e+00 
        </DataArray>
        <DataArray type="Float64" Name="p">
          -4.61227991e+03 -4.59562326e+03 -4.57896661e+03 -4.56230996e+03 -4.67456158e+03 -4.64633975e+03 -4.61811791e+03 -4.58989608e+03 -4.73684325e+03 -4.69705623e+03 -4.65726922e+03 -4.61748221e+03 -4.79912492e+03 -4.74777272e+03 -4.69642053e+03 -4.64506833e+03 
        </DataArray>
      </PointData>
    </Piece>
    <Piece NumberOfPoints="16" NumberOfCells="9">
      <Points>
        <DataArray type="Float64" NumberOfComponents="3" format="ascii">
          2.50000000e+00 2.00000000e+00 0.00000000e+00 
3.33333325e+00 2.00000000e+00 0.00000000e+00 
4.16666651e+00 2.00000000e+00 0.00000000e+00 
5.00000000e+00 2.00000000e+00 0.00000000e+00 
2.50000000e+00 2.33333325e+00 0.00000000e+00 
3.33333325e+00 2.33333325e+00 0.00000000e+00 
4.16666651e+00 2.33333325e+00 0.00000000e+00 
5.00000000e+00 2.33333325e+00 0.00000000e+00 
2.50000000e+00 2.66666675e+00 0.00000000e+00 
3.33333325e+00 2.66666675e+00 0.00000000e+00 
4.16666651e+00 2.66666675e+00 0.00000000e+00 
5.00000000e+00 2.66666675e+00 0.00000000e+00 
2.50000000e+00 3.00000000e+00 0.00000000e+00 
3.33333325e+00 3.00000000e+00 0.00000000e+00 
4.16666651e+00 3.00000000e+00 0.00000000e+00 
5.00000000e+00 3.00000000e+00 0.00000000e+00 

        </DataArray>
      </Points>
      <Cells>
        <DataArray type="Int32" Name="connectivity" format="ascii">
0 1 5 4
4 5 9 8
8 9 13 12
1 2 6 5
5 6 10 9
9 10 14 13
2 3 7 6
6 7 11 10
10 11 15 14

        </DataArray>
        <DataArray type="Int32" Name="offsets" format="ascii">
4 8 12 16 20 24 28 32 36 
        </DataArray>
        <DataArray type="UInt8" Name="types" format="ascii">
9 9 9 9 9 9 9 9 9 
        </DataArray>
      </Cells>
      <PointData>
        <DataArray type="Float64" Name="u">
          0.00000000e+00 -5.41947286e+00 -7.07912683e+00 -8.88201057e+00 0.00000000e+00 -2.23352088e+00 -1.03050546e+00 2.28315885e+00 0.00000000e+00 7.75962395e+00 1.16100940e+01 2.00713969e+01 0.00000000e+00 3.66020376e+01 3.70681875e+01 4.77045598e+01 
        </DataArray>
        <DataArray type="Float64" Name="v">
          0.00000000e+00 1.33105972e+01 9.99622315e+00 5.24752316e+00 0.00000000e+00 1.53579979e+01 9.39419100e+00 3.87428901e+00 0.00000000e+00 1.36786408e+01 8.38958748e+00 2.85428618e+00 0.00000000e+00 5.85194039e+00 4.23103650e+00 2.56456697e+00 
        </DataArray>
        <DataArray type="Float64" Name="p">
          -4.77641645e+03 -4.75621909e+03 -4.73602173e+03 -4.71582438e+03 -5.01063940e+03 -4.87836956e+03 -4.74609972e+03 -4.61382987e+03 -5.24486235e+03 -5.00052002e+03 -4.75617770e+03 -4.51183537e+03 -5.47908530e+03 -5.12267049e+03 -4.76625568e+03 -4.40984087e+03 
        </DataArray>
      </PointData>
    </Piece>
    <Piece NumberOfPoints="16" NumberOfCells="9">
      <Points>
        <DataArray type="Float64" NumberOfComponents="3" format="ascii">
          2.50000000e+00 3.00000000e+00 0.00000000e+00 
3.33333325e+00 3.00000000e+00 0.00000000e+00 
4.16666651e+00 3.00000000e+00 0.00000000e+00 
5.00000000e+00 3.00000000e+00 0.00000000e+00 
2.50000000e+00 3.33333325e+00 0.00000000e+00 
3.33333325e+00 3.33333325e+00 0.00000000e+00 
4.16666651e+00 3.33333325e+00 0.00000000e+00 
5.00000000e+00 3.33333325e+00 0.00000000e+00 
2.50000000e+00 3.66666675e+00 0.00000000e+00 
3.33333325e+00 3.66666675e+00 0.00000000e+00 
4.16666651e+00 3.66666675e+00 0.00000000e+00 
5.00000000e+00 3.66666675e+00 0.00000000e+00 
2.50000000e+00 4.00000000e+00 0.00000000e+00 
3.33333325e+00 4.00000000e+00 0.00000000e+00 
4.16666651e+00 4.00000000e+00 0.00000000e+00 
5.00000000e+00 4.00000000e+00 0.00000000e+00 

        </DataArray>
      </Points>
      <Cells>
        <DataArray type="Int32" Name="connectivity" format="ascii">
0 1 5 4
4 5 9 8
8 9 13 12
1 2 6 5
5 6 10 9
9 10 14 13
2 3 7 6
6 7 11 10
10 11 15 14

        </DataArray>
        <DataArray type="Int32" Name="offsets" format="ascii">
4 8 12 16 20 24 28 32 36 
        </DataArray>
        <DataArray type="UInt8" Name="types" format="ascii">
9 9 9 9 9 9 9 9 9 
        </DataArray>
      </Cells>
      <PointData>
        <DataArray type="Float64" Name="u">
          0.00000000e+00 3.66020376e+01 3.70681875e+01 4.77045598e+01 8.17353854e+01 8.34578096e+01 8.18249446e+01 8.13851720e+01 1.48233678e+02 1.40590114e+02 1.34841597e+02 1.26206041e+02 1.93939212e+02 1.85363844e+02 1.79810521e+02 1.68092164e+02 
        </DataArray>
        <DataArray type="Float64" Name="v">
          0.00000000e+00 5.85194039e+00 4.23103650e+00 2.56456697e+00 1.24271902e+00 -8.59864827e-02 3.18863937e+00 6.36302661e+00 2.75609778e+00 7.83033197e-02 2.26626762e+00 7.45671836e+00 4.79398106e+00 4.21742470e+00 7.27227562e+00 1.16608310e+01 
        </DataArray>
        <DataArray type="Float64" Name="p">
          -5.51349374e+03 -5.06833828e+03 -4.62318281e+03 -4.17802735e+03 -5.26278633e+03 -4.98975498e+03 -4.71672363e+03 -4.44369229e+03 -5.01207892e+03 -4.91117168e+03 -4.81026445e+03 -4.70935722e+03 -4.76137150e+03 -4.83258839e+03 -4.90380527e+03 -4.97502216e+03 
        </DataArray>
      </PointData>
    </Piece>
    <Piece NumberOfPoints="16" NumberOfCells="9">
      <Points>
        <DataArray type="Float64" NumberOfComponents="3" format="ascii">
          2.50000000e+00 4.00000000e+00 0.00000000e+00 
3.33333325e+00 4.00000000e+00 0.00000000e+00 
4.16666651e+00 4.00000000e+00 0.00000000e+00 
5.00000000e+00 4.00000000e+00 0.00000000e+00 
2.50000000e+00 4.33333349e+00 0.00000000e+00 
3.33333325e+00 4.33333349e+00 0.00000000e+00 
4.16666651e+00 4.33333349e+00 0.00000000e+00 
5.00000000e+00 4.33333349e+00 0.00000000e+00 
2.50000000e+00 4.66666651e+00 0.00000000e+00 
3.33333325e+00 4.66666651e+00 0.00000000e+00 
4.16666651e+00 4.66666651e+00 0.00000000e+00 
5.00000000e+00 4.66666651e+00 0.00000000e+00 
2.50000000e+00 5.00000000e+00 0.00000000e+00 
3.33333325e+00 5.00000000e+00 0.00000000e+00 
4.16666651e+00 5.00000000e+00 0.00000000e+00 
5.00000000e+00 5.00000000e+00 0.00000000e+00 

        </DataArray>
      </Points>
      <Cells>
        <DataArray type="Int32" Name="connectivity" format="ascii">
0 1 5 4
4 5 9 8
8 9 13 12
1 2 6 5
5 6 10 9
9 10 14 13
2 3 7 6
6 7 11 10
10 11 15 14

        </DataArray>
        <DataArray type="Int32" Name="offsets" format="ascii">
4 8 12 16 20 24 28 32 36 
        </DataArray>
        <DataArray type="UInt8" Name="types" format="ascii">
9 9 9 9 9 9 9 9 9 
        </DataArray>
      </Cells>
      <PointData>
        <DataArray type="Float64" Name="u">
          1.93939212e+02 1.85363844e+02 1.79810521e+02 1.68092164e+02 2.19055145e+02 2.10890024e+02 2.06993970e+02 1.96471441e+02 2.22549780e+02 2.15934097e+02 2.14807709e+02 2.07165279e+02 2.03992291e+02 1.99187063e+02 2.02195604e+02 1.97754425e+02 
        </DataArray>
        <DataArray type="Float64" Name="v">
          4.79398106e+00 4.21742470e+00 7.27227562e+00 1.16608310e+01 6.14722258e+00 8.79724873e+00 1.14620965e+01 1.50126812e+01 6.07704122e+00 9.53114813e+00 1.36050623e+01 1.74006295e+01 6.23322204e+00 1.25751714e+01 1.57780235e+01 1.80269176e+01 
        </DataArray>
        <DataArray type="Float64" Name="p">
          -4.65871954e+03 -4.81589020e+03 -4.97306086e+03 -5.13023152e+03 -4.92304610e+03 -5.11785470e+03 -5.31266330e+03 -5.50747190e+03 -5.18737266e+03 -5.41981920e+03 -5.65226574e+03 -5.88471228e+03 -5.45169921e+03 -5.72178370e+03 -5.99186818e+03 -6.26195267e+03 
        </DataArray>
      </PointData>
    </Piece>
    <Piece NumberOfPoints="16" NumberOfCells="9">
      <Points>
        <DataArray type="Float64" NumberOfComponents="3" format="ascii">
          2.50000000e+00 5.00000000e+00 0.00000000e+00 
3.33333325e+00 5.00000000e+00 0.00000000e+00 
4.16666651e+00 5.00000000e+00 0.00000000e+00 
5.00000000e+00 5.00000000e+00 0.00000000e+00 
2.50000000e+00 5.33333349e+00 0.00000000e+00 
3.33333325e+00 5.33333349e+00 0.00000000e+00 
4.16666651e+00 5.33333349e+00 0.00000000e+00 
5.00000000e+00 5.33333349e+00 0.00000000e+00 
2.50000000e+00 5.66666651e+00 0.00000000e+00 
3.33333325e+00 5.66666651e+00 0.00000000e+00 
4.16666651e+00 5.66666651e+00 0.00000000e+00 
5.00000000e+00 5.66666651e+00 0.00000000e+00 
2.50000000e+00 6.00000000e+00 0.00000000e+00 
3.33333325e+00 6.00000000e+00 0.00000000e+00 
4.16666651e+00 6.00000000e+00 0.00000000e+00 
5.00000000e+00 6.00000000e+00 0.00000000e+00 

        </DataArray>
      </Points>
      <Cells>
        <DataArray type="Int32" Name="connectivity" format="ascii">
0 1 5 4
4 5 9 8
8 9 13 12
1 2 6 5
5 6 10 9
9 10 14 13
2 3 7 6
6 7 11 10
10 11 15 14

        </DataArray>
        <DataArray type="Int32" Name="offsets" format="ascii">
4 8 12 16 20 24 28 32 36 
        </DataArray>
        <DataArray type="UInt8" Name="types" format="ascii">
9 9 9 9 9 9 9 9 9 
        </DataArray>
      </Cells>
      <PointData>
        <DataArray type="Float64" Name="u">
          2.03992291e+02 1.99187063e+02 2.02195604e+02 1.97754425e+02 1.63214213e+02 1.62536757e+02 1.68115097e+02 1.70659094e+02 9.99241303e+01 1.07485155e+02 1.18435892e+02 1.29834137e+02 0.00000000e+00 5.30083461e+01 6.44820903e+01 8.80559706e+01 
        </DataArray>
        <DataArray type="Float64" Name="v">
          6.23322204e+00 1.25751714e+01 1.57780235e+01 1.80269176e+01 4.04177277e+00 1.25631578e+01 1.55452164e+01 1.53076727e+01 4.11981079e+00 1.23655928e+01 1.38044090e+01 1.32278449e+01 0.00000000e+00 1.03253360e+00 5.95805684e+00 1.07948455e+01 
        </DataArray>
        <DataArray type="Float64" Name="p">
          -5.62653451e+03 -5.84905209e+03 -6.07156966e+03 -6.29408724e+03 -6.25531842e+03 -6.21651364e+03 -6.17770886e+03 -6.13890407e+03 -6.88410233e+03 -6.58397519e+03 -6.28384805e+03 -5.98372091e+03 -7.51288625e+03 -6.95143674e+03 -6.38998724e+03 -5.82853774e+03 
        </DataArray>
      </PointData>
    </Piece>
    <Piece NumberOfPoints="16" NumberOfCells="9">
      <Points>
        <DataArray type="Float64" NumberOfComponents="3" format="ascii">
          2.50000000e+00 6.00000000e+00 0.00000000e+00 
3.33333325e+00 6.00000000e+00 0.00000000e+00 
4.16666651e+00 6.00000000e+00 0.00000000e+00 
5.00000000e+00 6.00000000e+00 0.00000000e+00 
2.50000000e+00 6.33333349e+00 0.00000000e+00 
3.33333325e+00 6.33333349e+00 0.00000000e+00 
4.16666651e+00 6.33333349e+00 0.00000000e+00 
5.00000000e+00 6.33333349e+00 0.00000000e+00 
2.50000000e+00 6.66666651e+00 0.00000000e+00 
3.33333325e+00 6.66666651e+00 0.00000000e+00 
4.16666651e+00 6.66666651e+00 0.00000000e+00 
5.00000000e+00 6.66666651e+00 0.00000000e+00 
2.50000000e+00 7.00000000e+00 0.00000000e+00 
3.33333325e+00 7.00000000e+00 0.00000000e+00 
4.16666651e+00 7.00000000e+00 0.00000000e+00 
5.00000000e+00 7.00000000e+00 0.00000000e+00 

        </DataArray>
      </Points>
      <Cells>
        <DataArray type="Int32" Name="connectivity" format="ascii">
0 1 5 4
4 5 9 8
8 9 13 12
1 2 6 5
5 6 10 9
9 10 14 13
2 3 7 6
6 7 11 10
10 11 15 14

        </DataArray>
        <DataArray type="Int32" Name="offsets" format="ascii">
4 8 12 16 20 24 28 32 36 
        </DataArray>
        <DataArray type="UInt8" Name="types" format="ascii">
9 9 9 9 9 9 9 9 9 
        </DataArray>
      </Cells>
      <PointData>
        <DataArray type="Float64" Name="u">
          0.00000000e+00 5.30083461e+01 6.44820903e+01 8.80559706e+01 0.00000000e+00 1.42945730e+01 2.65949618e+01 4.83616418e+01 0.00000000e+00 8.23373855e-02 6.70819430e+00 1.99996073e+01 0.00000000e+00 -4.85070368e+00 -3.51316297e+00 -2.03793348e-01 
        </DataArray>
        <DataArray type="Float64" Name="v">
          0.00000000e+00 1.03253360e+00 5.95805684e+00 1.07948455e+01 0.00000000e+00 -1.23397892e+01 -3.79781477e+00 6.29707982e+00 0.00000000e+00 -1.67299543e+01 -8.27934817e+00 1.75557602e+00 0.00000000e+00 -1.56328272e+01 -1.16311467e+01 -3.61583126e+00 
        </DataArray>
        <DataArray type="Float64" Name="p">
          -7.37018466e+03 -6.90098541e+03 -6.43178616e+03 -5.96258691e+03 -7.07688787e+03 -6.76765566e+03 -6.45842345e+03 -6.14919124e+03 -6.78359109e+03 -6.63432591e+03 -6.48506074e+03 -6.33579556e+03 -6.49029431e+03 -6.50099617e+03 -6.51169803e+03 -6.52239989e+03 
        </DataArray>
      </PointData>
    </Piece>
    <Piece NumberOfPoints="16" NumberOfCells="9">
      <Points>
        <DataArray type="Float64" NumberOfComponents="3" format="ascii">
          2.50000000e+00 7.00000000e+00 0.00000000e+00 
3.33333325e+00 7.00000000e+00 0.00000000e+00 
4.16666651e+00 7.00000000e+00 0.00000000e+00 
5.00000000e+00 7.00000000e+00 0.00000000e+00 
2.50000000e+00 7.33333349e+00 0.00000000e+00 
3.33333325e+00 7.33333349e+00 0.00000000e+00 
4.16666651e+00 7.33333349e+00 0.00000000e+00 
5.00000000e+00 7.33333349e+00 0.00000000e+00 
2.50000000e+00 7.66666651e+00 0.00000000e+00 
3.33333325e+00 7.66666651e+00 0.00000000e+00 
4.16666651e+00 7.66666651e+00 0.00000000e+00 
5.00000000e+00 7.66666651e+00 0.00000000e+00 
2.50000000e+00 8.00000000e+00 0.00000000e+00 
3.33333325e+00 8.00000000e+00 0.00000000e+00 
4.16666651e+00 8.00000000e+00 0.00000000e+00 
5.00000000e+00 8.00000000e+00 0.00000000e+00 

        </DataArray>
      </Points>
      <Cells>
        <DataArray type="Int32" Name="connectivity" format="ascii">
0 1 5 4
4 5 9 8
8 9 13 12
1 2 6 5
5 6 10 9
9 10 14 13
2 3 7 6
6 7 11 10
10 11 15 14

        </DataArray>
        <DataArray type="Int32" Name="offsets" format="ascii">
4 8 12 16 20 24 28 32 36 
        </DataArray>
        <DataArray type="UInt8" Name="types" format="ascii">
9 9 9 9 9 9 9 9 9 
        </DataArray>
      </Cells>
      <PointData>
        <DataArray type="Float64" Name="u">
          0.00000000e+00 -4.85070368e+00 -3.51316297e+00 -2.03793348e-01 0.00000000e+00 -6.99662313e+00 -9.69516307e+00 -1.21820316e+01 0.00000000e+00 -7.54028715e+00 -1.24045595e+01 -1.85581400e+01 0.00000000e+00 -6.97536042e+00 -1.23145897e+01 -1.99912701e+01 
        </DataArray>
        <DataArray type="Float64" Name="v">
          0.00000000e+00 -1.56328272e+01 -1.16311467e+01 -3.61583126e+00 0.00000000e+00 -1.28366006e+01 -1.10033073e+01 -5.55723967e+00 0.00000000e+00 -9.94606451e+00 -9.08014878e+00 -5.55383757e+00 0.00000000e+00 -6.06557292e+00 -6.00449590e+00 -4.23131521e+00 
        </DataArray>
        <DataArray type="Float64" Name="p">
          -6.53276793e+03 -6.49032472e+03 -6.44788150e+03 -6.40543829e+03 -6.45905558e+03 -6.41986243e+03 -6.38066927e+03 -6.34147612e+03 -6.38534323e+03 -6.34940014e+03 -6.31345704e+03 -6.27751394e+03 -6.31163089e+03 -6.27893785e+03 -6.24624481e+03 -6.21355177e+03 
        </DataArray>
      </PointData>
    </Piece>
    <Piece NumberOfPoints="16" NumberOfCells="9">
      <Points>
        <DataArray type="Float64" NumberOfComponents="3" format="ascii">
          2.50000000e+00 8.00000000e+00 0.00000000e+00 
3.33333325e+00 8.00000000e+00 0.00000000e+00 
4.16666651e+00 8.00000000e+00 0.00000000e+00 
5.00000000e+00 8.00000000e+00 0.00000000e+00 
2.50000000e+00 8.33333302e+00 0.00000000e+00 
3.33333325e+00 8.33333302e+00 0.00000000e+00 
4.16666651e+00 8.33333302e+00 0.00000000e+00 
5.00000000e+00 8.33333302e+00 0.00000000e+00 
2.50000000e+00 8.66666698e+00 0.00000000e+00 
3.33333325e+00 8.66666698e+00 0.00000000e+00 
4.16666651e+00 8.66666698e+00 0.00000000e+00 
5.00000000e+00 8.66666698e+00 0.00000000e+00 
2.50000000e+00 9.00000000e+00 0.00000000e+00 
3.33333325e+00 9.00000000e+00 0.00000000e+00 
4.16666651e+00 9.00000000e+00 0.00000000e+00 
5.00000000e+00 9.00000000e+00 0.00000000e+00 

        </DataArray>
      </Points>
      <Cells>
        <DataArray type="Int32" Name="connectivity" format="ascii">
0 1 5 4
4 5 9 8
8 9 13 12
1 2 6 5
5 6 10 9
9 10 14 13
2 3 7 6
6 7 11 10
10 11 15 14

        </DataArray>
        <DataArray type="Int32" Name="offsets" format="ascii">
4 8 12 16 20 24 28 32 36 
        </DataArray>
        <DataArray type="UInt8" Name="types" format="ascii">
9 9 9 9 9 9 9 9 9 
        </DataArray>
      </Cells>
      <PointData>
        <DataArray type="Float64" Name="u">
          0.00000000e+00 -6.97536042e+00 -1.23145897e+01 -1.99912701e+01 0.00000000e+00 -5.48379710e+00 -9.83045435e+00 -1.70402288e+01 0.00000000e+00 -3.13420120e+00 -5.49724772e+00 -9.99728256e+00 0.00000000e+00 0.00000000e+00 0.00000000e+00 0.00000000e+00 
        </DataArray>
        <DataArray type="Float64" Name="v">
          0.00000000e+00 -6.06557292e+00 -6.00449590e+00 -4.23131521e+00 0.00000000e+00 -2.77396797e+00 -2.85687836e+00 -2.18236263e+00 0.00000000e+00 -9.47221229e-01 -1.02394822e+00 -8.73075469e-01 0.00000000e+00 0.00000000e+00 0.00000000e+00 0.00000000e+00 
        </DataArray>
        <DataArray type="Float64" Name="p">
          -6.32433556e+03 -6.28230879e+03 -6.24028203e+03 -6.19825526e+03 -6.33459380e+03 -6.29374862e+03 -6.25290343e+03 -6.21205825e+03 -6.34485203e+03 -6.30518844e+03 -6.26552484e+03 -6.22586124e+03 -6.35511027e+03 -6.31662826e+03 -6.27814625e+03 -6.23966424e+03 
        </DataArray>
      </PointData>
    </Piece>
    <Piece NumberOfPoints="16" NumberOfCells="9">
      <Points>
        <DataArray type="Float64" NumberOfComponents="3" format="ascii">
          5.00000000e+00 0.00000000e+00 0.00000000e+00 
5.83333349e+00 0.00000000e+00 0.00000000e+00 
6.66666651e+00 0.00000000e+00 0.00000000e+00 
7.50000000e+00 0.00000000e+00 0.00000000e+00 
5.00000000e+00 3.33333343e-01 0.00000000e+00 
5.83333349e+00 3.33333343e-01 0.00000000e+00 
6.66666651e+00 3.33333343e-01 0.00000000e+00 
7.50000000e+00 3.33333343e-01 0.00000000e+00 
5.00000000e+00 6.66666687e-01 0.00000000e+00 
5.83333349e+00 6.66666687e-01 0.00000000e+00 
6.66666651e+00 6.66666687e-01 0.00000000e+00 
7.50000000e+00 6.66666687e-01 0.00000000e+00 
5.00000000e+00 1.00000000e+00 0.00000000e+00 
5.83333349e+00 1.00000000e+00 0.00000000e+00 
6.66666651e+00 1.00000000e+00 0.00000000e+00 
7.50000000e+00 1.00000000e+00 0.00000000e+00 

        </DataArray>
      </Points>
      <Cells>
        <DataArray type="Int32" Name="connectivity" format="ascii">
0 1 5 4
4 5 9 8
8 9 13 12
1 2 6 5
5 6 10 9
9 10 14 13
2 3 7 6
6 7 11 10
10 11 15 14

        </DataArray>
        <DataArray type="Int32" Name="offsets" format="ascii">
4 8 12 16 20 24 28 32 36 
        </DataArray>
        <DataArray type="UInt8" Name="types" format="ascii">
9 9 9 9 9 9 9 9 9 
        </DataArray>
      </Cells>
      <PointData>
        <DataArray type="Float64" Name="u">