<?xml version="1.0"?>
<VTKFile type="UnstructuredGrid" version="0.1" byte_order="LittleEndian">
  <UnstructuredGrid>
    <Piece NumberOfPoints="16" NumberOfCells="9">
      <Points>
        <DataArray type="Float64" NumberOfComponents="3" format="ascii">
          0.00000000e+00 3.00000000e+00 0.00000000e+00 
8.33333313e-01 3.00000000e+00 0.00000000e+00 
1.66666663e+00 3.00000000e+00 0.00000000e+00 
2.50000000e+00 3.00000000e+00 0.00000000e+00 
0.00000000e+00 3.33333325e+00 0.00000000e+00 
8.33333313e-01 3.33333325e+00 0.00000000e+00 
1.66666663e+00 3.33333325e+00 0.00000000e+00 
2.50000000e+00 3.33333325e+00 0.00000000e+00 
0.00000000e+00 3.66666675e+00 0.00000000e+00 
8.33333313e-01 3.66666675e+00 0.00000000e+00 
1.66666663e+00 3.66666675e+00 0.00000000e+00 
2.50000000e+00 3.66666675e+00 0.00000000e+00 
0.00000000e+00 4.00000000e+00 0.00000000e+00 
8.33333313e-01 4.00000000e+00 0.00000000e+00 
1.66666663e+00 4.00000000e+00 0.00000000e+00 
2.50000000e+00 4.00000000e+00 0.00000000e+00 

        </DataArray>
      </Points>
      <Cells>
        <DataArray type="Int32" Name="connectivity" format="ascii">
0 1 5 4
4 5 9 8
8 9 13 12
1 2 6 5
5 6 10 9
9 10 14 13
2 3 7 6
6 7 11 10
10 11 15 14

        </DataArray>
        <DataArray type="Int32" Name="offsets" format="ascii">
4 8 12 16 20 24 28 32 36 
        </DataArray>
        <DataArray type="UInt8" Name="types" format="ascii">
9 9 9 9 9 9 9 9 9 
        </DataArray>
      </Cells>
      <PointData>
        <DataArray type="Float64" Name="u">
          0.00000000e+00 0.00000000e+00 0.00000000e+00 0.00000000e+00 8.88888889e+01 8.94752148e+01 8.95131793e+01 9.11499699e+01 1.55555556e+02 1.55365825e+02 1.56284030e+02 1.55832005e+02 2.00000000e+02 1.98960622e+02 2.00381578e+02 1.98717128e+02 
        </DataArray>
        <DataArray type="Float64" Name="v">
          0.00000000e+00 0.00000000e+00 0.00000000e+00 0.00000000e+00 0.00000000e+00 -2.44508849e-01 -4.55597865e-02 -1.75520569e+00 0.00000000e+00 -2.19339030e-01 -2.44642314e-01 -9.21523958e-01 0.00000000e+00 -3.08822609e-01 -2.48988949e-01 -8.58453253e-01 
        </DataArray>
        <DataArray type="Float64" Name="p">
          -1.31690228e+03 -2.75886835e+03 -4.20083441e+03 -5.64280047e+03 -1.32790467e+03 -2.75612387e+03 -4.18434307e+03 -5.61256227e+03 -1.33890705e+03 -2.75337939e+03 -4.16785173e+03 -5.58232407e+03 -1.34990943e+03 -2.75063491e+03 -4.15136039e+03 -5.55208587e+03 
        </DataArray>
      </PointData>
    </Piece>
    <Piece NumberOfPoints="16" NumberOfCells="9">
      <Points>
        <DataArray type="Float64" NumberOfComponents="3" format="ascii">
          0.00000000e+00 4.00000000e+00 0.00000000e+00 
8.33333313e-01 4.00000000e+00 0.00000000e+00 
1.66666663e+00 4.00000000e+00 0.00000000e+00 
2.50000000e+00 4.00000000e+00 0.00000000e+00 
0.00000000e+00 4.33333349e+00 0.00000000e+00 
8.33333313e-01 4.33333349e+00 0.00000000e+00 
1.66666663e+00 4.33333349e+00 0.00000000e+00 
2.50000000e+00 4.33333349e+00 0.00000000e+00 
0.00000000e+00 4.66666651e+00 0.00000000e+00 
8.33333313e-01 4.66666651e+00 0.00000000e+00 
1.66666663e+00 4.66666651e+00 0.00000000e+00 
2.50000000e+00 4.66666651e+00 0.00000000e+00 
0.00000000e+00 5.00000000e+00 0.00000000e+00 
8.33333313e-01 5.00000000e+00 0.00000000e+00 
1.66666663e+00 5.00000000e+00 0.00000000e+00 
2.50000000e+00 5.00000000e+00 0.00000000e+00 

        </DataArray>
      </Points>
      <Cells>
        <DataArray type="Int32" Name="connectivity" format="ascii">
0 1 5 4
4 5 9 8
8 9 13 12
1 2 6 5
5 6 10 9
9 10 14 13
2 3 7 6
6 7 11 10
10 11 15 14

        </DataArray>
        <DataArray type="Int32" Name="offsets" format="ascii">
4 8 12 16 20 24 28 32 36 
        </DataArray>
        <DataArray type="UInt8" Name="types" format="ascii">
9 9 9 9 9 9 9 9 9 
        </DataArray>
      </Cells>
      <PointData>
        <DataArray type="Float64" Name="u">
          2.00000000e+02 1.98960622e+02 2.00381578e+02 1.98717128e+02 2.22222222e+02 2.20924635e+02 2.22208982e+02 2.20539940e+02 2.22222222e+02 2.20924635e+02 2.22208982e+02 2.20539940e+02 2.00000000e+02 1.98960622e+02 2.00381578e+02 1.98717128e+02 
        </DataArray>
        <DataArray type="Float64" Name="v">
          0.00000000e+00 -3.08822609e-01 -2.48988949e-01 -8.58453253e-01 0.00000000e+00 -1.49468513e-02 -1.05550724e-01 3.46673237e-02 0.00000000e+00 1.49468513e-02 1.05550724e-01 -3.46673237e-02 0.00000000e+00 3.08822609e-01 2.48988949e-01 8.58453253e-01 
        </DataArray>
        <DataArray type="Float64" Name="p">
          -1.32826001e+03 -2.73611149e+03 -4.14396298e+03 -5.55181446e+03 -1.32826001e+03 -2.73611149e+03 -4.14396298e+03 -5.55181446e+03 -1.32826001e+03 -2.73611149e+03 -4.14396298e+03 -5.55181446e+03 -1.32826001e+03 -2.73611149e+03 -4.14396298e+03 -5.55181446e+03 
        </DataArray>
      </PointData>
    </Piece>
    <Piece NumberOfPoints="16" NumberOfCells="9">
      <Points>
        <DataArray type="Float64" NumberOfComponents="3" format="ascii">
          0.00000000e+00 5.00000000e+00 0.00000000e+00 
8.33333313e-01 5.00000000e+00 0.00000000e+00 
1.66666663e+00 5.00000000e+00 0.00000000e+00 
2.50000000e+00 5.00000000e+00 0.00000000e+00 
0.00000000e+00 5.33333349e+00 0.00000000e+00 
8.33333313e-01 5.33333349e+00 0.00000000e+00 
1.66666663e+00 5.33333349e+00 0.00000000e+00 
2.50000000e+00 5.33333349e+00 0.00000000e+00 
0.00000000e+00 5.66666651e+00 0.00000000e+00 
8.33333313e-01 5.66666651e+00 0.00000000e+00 
1.66666663e+00 5.66666651e+00 0.00000000e+00 
2.50000000e+00 5.66666651e+00 0.00000000e+00 
0.00000000e+00 6.00000000e+00 0.00000000e+00 
8.33333313e-01 6.00000000e+00 0.00000000e+00 
1.66666663e+00 6.00000000e+00 0.00000000e+00 
2.50000000e+00 6.00000000e+00 0.00000000e+00 

        </DataArray>
      </Points>
      <Cells>
        <DataArray type="Int32" Name="connectivity" format="ascii">
0 1 5 4
4 5 9 8
8 9 13 12
1 2 6 5
5 6 10 9
9 10 14 13
2 3 7 6
6 7 11 10
10 11 15 14

        </DataArray>
        <DataArray type="Int32" Name="offsets" format="ascii">
4 8 12 16 20 24 28 32 36 
        </DataArray>
        <DataArray type="UInt8" Name="types" format="ascii">
9 9 9 9 9 9 9 9 9 
        </DataArray>
      </Cells>
      <PointData>
        <DataArray type="Float64" Name="u">
          2.00000000e+02 1.98960622e+02 2.00381578e+02 1.98717128e+02 1.55555556e+02 1.55365825e+02 1.56284030e+02 1.55832005e+02 8.88888889e+01 8.94752148e+01 8.95131793e+01 9.11499699e+01 0.00000000e+00 0.00000000e+00 0.00000000e+00 0.00000000e+00 
        </DataArray>
        <DataArray type="Float64" Name="v">
          0.00000000e+00 3.08822609e-01 2.48988949e-01 8.58453253e-01 0.00000000e+00 2.19339030e-01 2.44642314e-01 9.21523958e-01 0.00000000e+00 2.44508849e-01 4.55597865e-02 1.75520569e+00 0.00000000e+00 0.00000000e+00 0.00000000e+00 0.00000000e+00 
        </DataArray>
        <DataArray type="Float64" Name="p">
          -1.34990943e+03 -2.75063491e+03 -4.15136039e+03 -5.55208587e+03 -1.33890705e+03 -2.75337939e+03 -4.16785173e+03 -5.58232407e+03 -1.32790467e+03 -2.75612387e+03 -4.18434307e+03 -5.61256227e+03 -1.31690228e+03 -2.75886835e+03 -4.20083441e+03 -5.64280047e+03 
        </DataArray>
      </PointData>
    </Piece>
    <Piece NumberOfPoints="16" NumberOfCells="9">
      <Points>
        <DataArray type="Float64" NumberOfComponents="3" format="ascii">
          2.50000000e+00 0.00000000e+00 0.00000000e+00 
3.33333325e+00 0.00000000e+00 0.00000000e+00 
4.16666651e+00 0.00000000e+00 0.00000000e+00 
5.00000000e+00 0.00000000e+00 0.00000000e+00 
2.50000000e+00 3.33333343e-01 0.00000000e+00 
3.33333325e+00 3.33333343e-01 0.00000000e+00 
4.16666651e+00 3.33333343e-01 0.00000000e+00 
5.00000000e+00 3.33333343e-01 0.00000000e+00 
2.50000000e+00 6.66666687e-01 0.00000000e+00 
3.33333325e+00 6.66666687e-01 0.00000000e+00 
4.16666651e+00 6.66666687e-01 0.00000000e+00 
5.00000000e+00 6.66666687e-01 0.00000000e+00 
2.50000000e+00 1.00000000e+00 0.00000000e+00 
3.33333325e+00 1.00000000e+00 0.00000000e+00 
4.16666651e+00 1.00000000e+00 0.00000000e+00 
5.00000000e+00 1.00000000e+00 0.00000000e+00 

        </DataArray>
      </Points>
      <Cells>
        <DataArray type="Int32" Name="connectivity" format="ascii">
0 1 5 4
4 5 9 8
8 9 13 12
1 2 6 5
5 6 10 9
9 10 14 13
2 3 7 6
6 7 11 10
10 11 15 14

        </DataArray>
        <DataArray type="Int32" Name="offsets" format="ascii">
4 8 12 16 20 24 28 32 36 
        </DataArray>
        <DataArray type="UInt8" Name="types" format="ascii">
9 9 9 9 9 9 9 9 9 
        </DataArray>
      </Cells>
      <PointData>
        <DataArray type="Float64" Name="u">
          0.00000000e+00 0.00000000e+00 0.00000000e+00 0.00000000e+00 0.00000000e+00 -3.08355006e+00 -5.16086096e+00 -9.27672225e+00 0.00000000e+00 -5.35069733e+00 -9.19717897e+00 -1.55541126e+01 0.00000000e+00 -6.84160753e+00 -1.16031136e+01 -1.85421002e+01 
        </DataArray>
        <DataArray type="Float64" Name="v">
          0.00000000e+00 0.00000000e+00 0.00000000e+00 0.00000000e+00 0.00000000e+00 9.02095965e-01 9.66129996e-01 6.54149139e-01 0.00000000e+00 2.66077412e+00 2.65167656e+00 1.73934668e+00 0.00000000e+00 5.81422285e+00 5.42338202e+00 3.50102735e+00 
        </DataArray>
        <DataArray type="Float64" Name="p">
          -5.20702591e+03 -5.15318516e+03 -5.09934442e+03 -5.04550367e+03 -5.19300253e+03 -5.13916874e+03 -5.08533496e+03 -5.03150117e+03 -5.17897914e+03 -5.12515232e+03 -5.07132550e+03 -5.01749868e+03 -5.16495575e+03 -5.11113590e+03 -5.05731604e+03 -5.00349619e+03 
        </DataArray>
      </PointData>
    </Piece>
    <Piece NumberOfPoints="16" NumberOfCells="9">
      <Points>
        <DataArray type="Float64" NumberOfComponents="3" format="ascii">
          2.50000000e+00 1.00000000e+00 0.00000000e+00 
3.33333325e+00 1.00000000e+00 0.00000000e+00 
4.16666651e+00 1.00000000e+00 0.00000000e+00 
5.00000000e+00 1.00000000e+00 0.00000000e+00 
2.50000000e+00 1.33333337e+00 0.00000000e+00 
3.33333325e+00 1.33333337e+00 0.00000000e+00 
4.16666651e+00 1.33333337e+00 0.00000000e+00 
5.00000000e+00 1.33333337e+00 0.00000000e+00 
2.50000000e+00 1.66666663e+00 0.00000000e+00 
3.33333325e+00 1.66666663e+00 0.00000000e+00 
4.16666651e+00 1.66666663e+00 0.00000000e+00 
5.00000000e+00 1.66666663e+00 0.00000000e+00 
2.50000000e+00 2.00000000e+00 0.00000000e+00 
3.33333325e+00 2.00000000e+00 0.00000000e+00 
4.16666651e+00 2.00000000e+00 0.00000000e+00 
5.00000000e+00 2.00000000e+00 0.00000000e+00 

        </DataArray>
      </Points>
      <Cells>
        <DataArray type="Int32" Name="connectivity" format="ascii">
0 1 5 4
4 5 9 8
8 9 13 12
1 2 6 5
5 6 10 9
9 10 14 13
2 3 7 6
6 7 11 10
10 11 15 14

        </DataArray>
        <DataArray type="Int32" Name="offsets" format="ascii">
4 8 12 16 20 24 28 32 36 
        </DataArray>
        <DataArray type="UInt8" Name="types" format="ascii">
9 9 9 9 9 9 9 9 9 
        </DataArray>
      </Cells>
      <PointData>
        <DataArray type="Float64" Name="u">
          0.00000000e+00 -6.84160753e+00 -1.16031136e+01 -1.85421002e+01 0.00000000e+00 -7.55764099e+00 -1.20259939e+01 -1.80529030e+01 0.00000000e+00 -7.25231268e+00 -1.00242273e+01 -1.34780589e+01 0.00000000e+00 -5.34071340e+00 -4.88400850e+00 -4.11421973e+00 
        </DataArray>
        <DataArray type="Float64" Name="v">
          0.00000000e+00 5.81422285e+00 5.42338202e+00 3.50102735e+00 0.00000000e+00 9.60014498e+00 8.22404094e+00 4.81277105e+00 0.00000000e+00 1.25025916e+01 1.01257919e+01 5.19164158e+00 0.00000000e+00 1.54919648e+01 1.11292852e+01 4.24977439e+00 
        </DataArray>
        <DataArray type="Float64" Name="p">
          -5.14879660e+03 -5.10479590e+03 -5.06079521e+03 -5.01679451e+03 -5.24603188e+03 -5.18565740e+03 -5.12528291e+03 -5.06490842e+03 -5.34326717e+03 -5.26651889e+03 -5.18977060e+03 -5.11302232e+03 -5.44050245e+03 -5.34738038e+03 -5.25425830e+03 -5.16113623e+03 
        </DataArray>
      </PointData>
    </Piece>
    <Piece NumberOfPoints="16" NumberOfCells="9">
      <Points>
        <DataArray type="Float64" NumberOfComponents="3" format="ascii">
          2.50000000e+00 2.00000000e+00 0.00000000e+00 
3.33333325e+00 2.00000000e+00 0.00000000e+00 
4.16666651e+00 2.00000000e+00 0.00000000e+00 
5.00000000e+00 2.00000000e+00 0.00000000e+00 
2.50000000e+00 2.33333325e+00 0.00000000e+00 
3.33333325e+00 2.33333325e+00 0.00000000e+00 
4.16666651e+00 2.33333325e+00 0.00000000e+00 
5.00000000e+00 2.33333325e+00 0.00000000e+00 
2.50000000e+00 2.66666675e+00 0.00000000e+00 
3.33333325e+00 2.66666675e+00 0.00000000e+00 
4.16666651e+00 2.66666675e+00 0.00000000e+00 
5.00000000e+00 2.66666675e+00 0.00000000e+00 
2.50000000e+00 3.00000000e+00 0.00000000e+00 
3.33333325e+00 3.00000000e+00 0.00000000e+00 
4.16666651e+00 3.00000000e+00 0.00000000e+00 
5.00000000e+00 3.00000000e+00 0.00000000e+00 

        </DataArray>
      </Points>
      <Cells>
        <DataArray type="Int32" Name="connectivity" format="ascii">
0 1 5 4
4 5 9 8
8 9 13 12
1 2 6 5
5 6 10 9
9 10 14 13
2 3 7 6
6 7 11 10
10 11 15 14

        </DataArray>
        <DataArray type="Int32" Name="offsets" format="ascii">
4 8 12 16 20 24 28 32 36 
        </DataArray>
        <DataArray type="UInt8" Name="types" format="ascii">
9 9 9 9 9 9 9 9 9 
        </DataArray>
      </Cells>
      <PointData>
        <DataArray type="Float64" Name="u">
          0.00000000e+00 -5.34071340e+00 -4.88400850e+00 -4.11421973e+00 0.00000000e+00 -5.62692191e-01 4.08419860e+00 1.23560373e+01 0.00000000e+00 1.26793207e+01 2.11872460e+01 3.60904154e+01 0.00000000e+00 4.68845224e+01 5.24748368e+01 6.96692288e+01 
        </DataArray>
        <DataArray type="Float64" Name="v">
          0.00000000e+00 1.54919648e+01 1.11292852e+01 4.24977439e+00 0.00000000e+00 1.69080679e+01 9.08789580e+00 1.01098609e+00 0.00000000e+00 1.33247216e+01 6.05383396e+00 -1.62271299e+00 0.00000000e+00 1.94473901e+00 -8.57693858e-01 -3.50535820e+00 
        </DataArray>
        <DataArray type="Float64" Name="p">
          -5.40185475e+03 -5.35815172e+03 -5.31444870e+03 -5.27074567e+03 -5.74983572e+03 -5.53051827e+03 -5.31120082e+03 -5.09188337e+03 -6.09781669e+03 -5.70288481e+03 -5.30795294e+03 -4.91302107e+03 -6.44579766e+03 -5.87525136e+03 -5.30470507e+03 -4.73415877e+03 
        </DataArray>
      </PointData>
    </Piece>
    <Piece NumberOfPoints="16" NumberOfCells="9">
      <Points>
        <DataArray type="Float64" NumberOfComponents="3" format="ascii">
          2.50000000e+00 3.00000000e+00 0.00000000e+00 
3.33333325e+00 3.00000000e+00 0.00000000e+00 
4.16666651e+00 3.00000000e+00 0.00000000e+00 
5.00000000e+00 3.00000000e+00 0.00000000e+00 
2.50000000e+00 3.33333325e+00 0.00000000e+00 
3.33333325e+00 3.33333325e+00 0.00000000e+00 
4.16666651e+00 3.33333325e+00 0.00000000e+00 
5.00000000e+00 3.33333325e+00 0.00000000e+00 
2.50000000e+00 3.66666675e+00 0.00000000e+00 
3.33333325e+00 3.66666675e+00 0.00000000e+00 
4.16666651e+00 3.66666675e+00 0.00000000e+00 
5.00000000e+00 3.66666675e+00 0.00000000e+00 
2.50000000e+00 4.00000000e+00 0.00000000e+00 
3.33333325e+00 4.00000000e+00 0.00000000e+00 
4.16666651e+00 4.00000000e+00 0.00000000e+00 
5.00000000e+00 4.00000000e+00 0.00000000e+00 

        </DataArray>
      </Points>
      <Cells>
        <DataArray type="Int32" Name="connectivity" format="ascii">
0 1 5 4
4 5 9 8
8 9 13 12
1 2 6 5
5 6 10 9
9 10 14 13
2 3 7 6
6 7 11 10
10 11 15 14

        </DataArray>
        <DataArray type="Int32" Name="offsets" format="ascii">
4 8 12 16 20 24 28 32 36 
        </DataArray>
        <DataArray type="UInt8" Name="types" format="ascii">
9 9 9 9 9 9 9 9 9 
        </DataArray>
      </Cells>
      <PointData>
        <DataArray type="Float64" Name="u">
          0.00000000e+00 4.68845224e+01 5.24748368e+01 6.96692288e+01 9.11499699e+01 9.61412501e+01 1.00737904e+02 1.06376340e+02 1.55832005e+02 1.51151204e+02 1.50965766e+02 1.48146996e+02 1.98717128e+02 1.91412775e+02 1.89949450e+02 1.81986072e+02 
        </DataArray>
        <DataArray type="Float64" Name="v">
          0.00000000e+00 1.94473901e+00 -8.57693858e-01 -3.50535820e+00 -1.75520569e+00 -6.80083976e+00 -5.25187350e+00 -2.55493545e+00 -9.21523958e-01 -7.11400489e+00 -6.88661465e+00 -3.10871957e+00 -8.58453253e-01 -4.64132927e+00 -4.37786684e+00 -2.55308399e+00 
        </DataArray>
        <DataArray type="Float64" Name="p">
          -6.50775889e+03 -5.84475612e+03 -5.18175335e+03 -4.51875058e+03 -5.99705262e+03 -5.59837087e+03 -5.19968911e+03 -4.80100736e+03 -5.48634634e+03 -5.35198561e+03 -5.21762487e+03 -5.08326414e+03 -4.97564007e+03 -5.10560035e+03 -5.23556063e+03 -5.36552091e+03 
        </DataArray>
      </PointData>
    </Piece>
    <Piece NumberOfPoints="16" NumberOfCells="9">
      <Points>
        <DataArray type="Float64" NumberOfComponents="3" format="ascii">
          2.50000000e+00 4.00000000e+00 0.00000000e+00 
3.33333325e+00 4.00000000e+00 0.00000000e+00 
4.16666651e+00 4.00000000e+00 0.00000000e+00 
5.00000000e+00 4.00000000e+00 0.00000000e+00 
2.50000000e+00 4.33333349e+00 0.00000000e+00 
3.33333325e+00 4.33333349e+00 0.00000000e+00 
4.16666651e+00 4.33333349e+00 0.00000000e+00 
5.00000000e+00 4.33333349e+00 0.00000000e+00 
2.50000000e+00 4.66666651e+00 0.00000000e+00 
3.33333325e+00 4.66666651e+00 0.00000000e+00 
4.16666651e+00 4.66666651e+00 0.00000000e+00 
5.00000000e+00 4.66666651e+00 0.00000000e+00 
2.50000000e+00 5.00000000e+00 0.00000000e+00 
3.33333325e+00 5.00000000e+00 0.00000000e+00 
4.16666651e+00 5.00000000e+00 0.00000000e+00 
5.00000000e+00 5.00000000e+00 0.00000000e+00 

        </DataArray>
      </Points>
      <Cells>
        <DataArray type="Int32" Name="connectivity" format="ascii">
0 1 5 4
4 5 9 8
8 9 13 12
1 2 6 5
5 6 10 9
9 10 14 13
2 3 7 6
6 7 11 10
10 11 15 14

        </DataArray>
        <DataArray type="Int32" Name="offsets" format="ascii">
4 8 12 16 20 24 28 32 36 
        </DataArray>
        <DataArray type="UInt8" Name="types" format="ascii">
9 9 9 9 9 9 9 9 9 
        </DataArray>
      </Cells>
      <PointData>
        <DataArray type="Float64" Name="u">
          1.98717128e+02 1.91412775e+02 1.89949450e+02 1.81986072e+02 2.20539940e+02 2.12244326e+02 2.09655844e+02 2.00726020e+02 2.20539940e+02 2.12244326e+02 2.09655844e+02 2.00726020e+02 1.98717128e+02 1.91412775e+02 1.89949450e+02 1.81986072e+02 
        </DataArray>
        <DataArray type="Float64" Name="v">
          -8.58453253e-01 -4.64132927e+00 -4.37786684e+00 -2.55308399e+00 3.46673237e-02 -5.81547231e-01 -1.30930284e+00 -1.20361832e+00 -3.46673237e-02 5.81547231e-01 1.30930284e+00 1.20361832e+00 8.58453253e-01 4.64132927e+00 4.37786684e+00 2.55308399e+00 
        </DataArray>
        <DataArray type="Float64" Name="p">
          -4.80414258e+03 -5.02449159e+03 -5.24484060e+03 -5.46518961e+03 -4.80414258e+03 -5.02449159e+03 -5.24484060e+03 -5.46518961e+03 -4.80414258e+03 -5.02449159e+03 -5.24484060e+03 -5.46518961e+03 -4.80414258e+03 -5.02449159e+03 -5.24484060e+03 -5.46518961e+03 
        </DataArray>
      </PointData>
    </Piece>
    <Piece NumberOfPoints="16" NumberOfCells="9">
      <Points>
        <DataArray type="Float64" NumberOfComponents="3" format="ascii">
          2.50000000e+00 5.00000000e+00 0.00000000e+00 
3.33333325e+00 5.00000000e+00 0.00000000e+00 
4.16666651e+00 5.00000000e+00 0.00000000e+00 
5.00000000e+00 5.00000000e+00 0.00000000e+00 
2.50000000e+00 5.33333349e+00 0.00000000e+00 
3.33333325e+00 5.33333349e+00 0.00000000e+00 
4.16666651e+00 5.33333349e+00 0.00000000e+00 
5.00000000e+00 5.33333349e+00 0.00000000e+00 
2.50000000e+00 5.66666651e+00 0.00000000e+00 
3.33333325e+00 5.66666651e+00 0.00000000e+00 
4.16666651e+00 5.66666651e+00 0.00000000e+00 
5.00000000e+00 5.66666651e+00 0.00000000e+00 
2.50000000e+00 6.00000000e+00 0.00000000e+00 
3.33333325e+00 6.00000000e+00 0.00000000e+00 
4.16666651e+00 6.00000000e+00 0.00000000e+00 
5.00000000e+00 6.00000000e+00 0.00000000e+00 

        </DataArray>
      </Points>
      <Cells>
        <DataArray type="Int32" Name="connectivity" format="ascii">
0 1 5 4
4 5 9 8
8 9 13 12
1 2 6 5
5 6 10 9
9 10 14 13
2 3 7 6
6 7 11 10
10 11 15 14

        </DataArray>
        <DataArray type="Int32" Name="offsets" format="ascii">
4 8 12 16 20 24 28 32 36 
        </DataArray>
        <DataArray type="UInt8" Name="types" format="ascii">
9 9 9 9 9 9 9 9 9 
        </DataArray>
      </Cells>
      <PointData>
        <DataArray type="Float64" Name="u">
          1.98717128e+02 1.91412775e+02 1.89949450e+02 1.81986072e+02 1.55832005e+02 1.51151204e+02 1.50965766e+02 1.48146996e+02 9.11499699e+01 9.61412501e+01 1.00737904e+02 1.06376340e+02 0.00000000e+00 4.68845224e+01 5.24748368e+01 6.96692288e+01 
        </DataArray>
        <DataArray type="Float64" Name="v">
          8.58453253e-01 4.64132927e+00 4.37786684e+00 2.55308399e+00 9.21523958e-01 7.11400489e+00 6.88661465e+00 3.10871957e+00 1.75520569e+00 6.80083976e+00 5.25187350e+00 2.55493545e+00 0.00000000e+00 -1.94473901e+00 8.57693858e-01 3.50535820e+00 
        </DataArray>
        <DataArray type="Float64" Name="p">
          -4.97564007e+03 -5.10560035e+03 -5.23556063e+03 -5.36552091e+03 -5.48634634e+03 -5.35198561e+03 -5.21762487e+03 -5.08326414e+03 -5.99705262e+03 -5.59837087e+03 -5.19968911e+03 -4.80100736e+03 -6.50775889e+03 -5.84475612e+03 -5.18175335e+03 -4.51875058e+03 
        </DataArray>
      </PointData>
    </Piece>
    <Piece NumberOfPoints="16" NumberOfCells="9">
      <Points>
        <DataArray type="Float64" NumberOfComponents="3" format="ascii">
          2.50000000e+00 6.00000000e+00 0.00000000e+00 
3.33333325e+00 6.00000000e+00 0.00000000e+00 
4.16666651e+00 6.00000000e+00 0.00000000e+00 
5.00000000e+00 6.00000000e+00 0.00000000e+00 
2.50000000e+00 6.33333349e+00 0.00000000e+00 
3.33333325e+00 6.33333349e+00 0.00000000e+00 
4.16666651e+00 6.33333349e+00 0.00000000e+00 
5.00000000e+00 6.33333349e+00 0.00000000e+00 
2.50000000e+00 6.66666651e+00 0.00000000e+00 
3.33333325e+00 6.66666651e+00 0.00000000e+00 
4.16666651e+00 6.66666651e+00 0.00000000e+00 
5.00000000e+00 6.66666651e+00 0.00000000e+00 
2.50000000e+00 7.00000000e+00 0.00000000e+00 
3.33333325e+00 7.00000000e+00 0.00000000e+00 
4.16666651e+00 7.00000000e+00 0.00000000e+00 
5.00000000e+00 7.00000000e+00 0.00000000e+00 

        </DataArray>
      </Points>
      <Cells>
        <DataArray type="Int32" Name="connectivity" format="ascii">
0 1 5 4
4 5 9 8
8 9 13 12
1 2 6 5
5 6 10 9
9 10 14 13
2 3 7 6
6 7 11 10
10 11 15 14

        </DataArray>
        <DataArray type="Int32" Name="offsets" format="ascii">
4 8 12 16 20 24 28 32 36 
        </DataArray>
        <DataArray type="UInt8" Name="types" format="ascii">
9 9 9 9 9 9 9 9 9 
        </DataArray>
      </Cells>
      <PointData>
        <DataArray type="Float64" Name="u">
          0.00000000e+00 4.68845224e+01 5.24748368e+01 6.96692288e+01 0.00000000e+00 1.26793207e+01 2.11872460e+01 3.60904154e+01 0.00000000e+00 -5.62692191e-01 4.08419860e+00 1.23560373e+01 0.00000000e+00 -5.34071340e+00 -4.88400850e+00 -4.11421973e+00 
        </DataArray>
        <DataArray type="Float64" Name="v">
          0.00000000e+00 -1.94473901e+00 8.57693858e-01 3.50535820e+00 0.00000000e+00 -1.33247216e+01 -6.05383396e+00 1.62271299e+00 0.00000000e+00 -1.69080679e+01 -9.08789580e+00 -1.01098609e+00 0.00000000e+00 -1.54919648e+01 -1.11292852e+01 -4.24977439e+00 
        </DataArray>
        <DataArray type="Float64" Name="p">
          -6.44579766e+03 -5.87525136e+03 -5.30470507e+03 -4.73415877e+03 -6.09781669e+03 -5.70288481e+03 -5.30795294e+03 -4.91302107e+03 -5.74983572e+03 -5.53051827e+03 -5.31120082e+03 -5.09188337e+03 -5.40185475e+03 -5.35815172e+03 -5.31444870e+03 -5.27074567e+03 
        </DataArray>
      </PointData>
    </Piece>
    <Piece NumberOfPoints="16" NumberOfCells="9">
      <Points>
        <DataArray type="Float64" NumberOfComponents="3" format="ascii">
          2.50000000e+00 7.00000000e+00 0.00000000e+00 
3.33333325e+00 7.00000000e+00 0.00000000e+00 
4.16666651e+00 7.00000000e+00 0.00000000e+00 
5.00000000e+00 7.00000000e+00 0.00000000e+00 
2.50000000e+00 7.33333349e+00 0.00000000e+00 
3.33333325e+00 7.33333349e+00 0.00000000e+00 
4.16666651e+00 7.33333349e+00 0.00000000e+00 
5.00000000e+00 7.33333349e+00 0.00000000e+00 
2.50000000e+00 7.66666651e+00 0.00000000e+00 
3.33333325e+00 7.66666651e+00 0.00000000e+00 
4.16666651e+00 7.66666651e+00 0.00000000e+00 
5.00000000e+00 7.66666651e+00 0.00000000e+00 
2.50000000e+00 8.00000000e+00 0.00000000e+00 
3.33333325e+00 8.00000000e+00 0.00000000e+00 
4.16666651e+00 8.00000000e+00 0.00000000e+00 
5.00000000e+00 8.00000000e+00 0.00000000e+00 

        </DataArray>
      </Points>
      <Cells>
        <DataArray type="Int32" Name="connectivity" format="ascii">
0 1 5 4
4 5 9 8
8 9 13 12
1 2 6 5
5 6 10 9
9 10 14 13
2 3 7 6
6 7 11 10
10 11 15 14

        </DataArray>
        <DataArray type="Int32" Name="offsets" format="ascii">
4 8 12 16 20 24 28 32 36 
        </DataArray>
        <DataArray type="UInt8" Name="types" format="ascii">
9 9 9 9 9 9 9 9 9 
        </DataArray>
      </Cells>
      <PointData>
        <DataArray type="Float64" Name="u">
          0.00000000e+00 -5.34071340e+00 -4.88400850e+00 -4.11421973e+00 0.00000000e+00 -7.25231268e+00 -1.00242273e+01 -1.34780589e+01 0.00000000e+00 -7.55764099e+00 -1.20259939e+01 -1.80529030e+01 0.00000000e+00 -6.84160753e+00 -1.16031136e+01 -1.85421002e+01 
        </DataArray>
        <DataArray type="Float64" Name="v">
          0.00000000e+00 -1.54919648e+01 -1.11292852e+01 -4.24977439e+00 0.00000000e+00 -1.25025916e+01 -1.01257919e+01 -5.19164158e+00 0.00000000e+00 -9.60014498e+00 -8.22404094e+00 -4.81277105e+00 0.00000000e+00 -5.81422285e+00 -5.42338202e+00 -3.50102735e+00 
        </DataArray>
        <DataArray type="Float64" Name="p">
          -5.44050245e+03 -5.34738038e+03 -5.25425830e+03 -5.16113623e+03 -5.34326717e+03 -5.26651889e+03 -5.18977060e+03 -5.11302232e+03 -5.24603188e+03 -5.18565740e+03 -5.12528291e+03 -5.06490842e+03 -5.14879660e+03 -5.10479590e+03 -5.06079521e+03 -5.01679451e+03 
        </DataArray>
      </PointData>
    </Piece>
    <Piece NumberOfPoints="16" NumberOfCells="9">
      <Points>
        <DataArray type="Float64" NumberOfComponents="3" format="ascii">
          2.50000000e+00 8.00000000e+00 0.00000000e+00 
3.33333325e+00 8.00000000e+00 0.00000000e+00 
4.16666651e+00 8.00000000e+00 0.00000000e+00 
5.00000000e+00 8.00000000e+00 0.00000000e+00 
2.50000000e+00 8.33333302e+00 0.00000000e+00 
3.33333325e+00 8.33333302e+00 0.00000000e+00 
4.16666651e+00 8.33333302e+00 0.00000000e+00 
5.00000000e+00 8.33333302e+00 0.00000000e+00 
2.50000000e+00 8.66666698e+00 0.00000000e+00 
3.33333325e+00 8.66666698e+00 0.00000000e+00 
4.16666651e+00 8.66666698e+00 0.00000000e+00 
5.00000000e+00 8.66666698e+00 0.00000000e+00 
2.50000000e+00 9.00000000e+00 0.00000000e+00 
3.33333325e+00 9.00000000e+00 0.00000000e+00 
4.16666651e+00 9.00000000e+00 0.00000000e+00 
5.00000000e+00 9.00000000e+00 0.00000000e+00 

        </DataArray>
      </Points>
      <Cells>
        <DataArray type="Int32" Name="connectivity" format="ascii">
0 1 5 4
4 5 9 8
8 9 13 12
1 2 6 5
5 6 10 9
9 10 14 13
2 3 7 6
6 7 11 10
10 11 15 14

        </DataArray>
        <DataArray type="Int32" Name="offsets" format="ascii">
4 8 12 16 20 24 28 32 36 
        </DataArray>
        <DataArray type="UInt8" Name="types" format="ascii">
9 9 9 9 9 9 9 9 9 
        </DataArray>
      </Cells>
      <PointData>
        <DataArray type="Float64" Name="u">
          0.00000000e+00 -6.84160753e+00 -1.16031136e+01 -1.85421002e+01 0.00000000e+00 -5.35069733e+00 -9.19717897e+00 -1.55541126e+01 0.00000000e+00 -3.08355006e+00 -5.16086096e+00 -9.27672225e+00 0.00000000e+00 0.00000000e+00 0.00000000e+00 0.00000000e+00 
        </DataArray>
        <DataArray type="Float64" Name="v">
          0.00000000e+00 -5.81422285e+00 -5.42338202e+00 -3.50102735e+00 0.00000000e+00 -2.66077412e+00 -2.65167656e+00 -1.73934668e+00 0.00000000e+00 -9.02095965e-01 -9.66129996e-01 -6.54149139e-01 0.00000000e+00 0.00000000e+00 0.00000000e+00 0.00000000e+00 
        </DataArray>
        <DataArray type="Float64" Name="p">
          -5.16495575e+03 -5.11113590e+03 -5.05731604e+03 -5.00349619e+03 -5.17897914e+03 -5.12515232e+03 -5.07132550e+03 -5.01749868e+03 -5.19300253e+03 -5.13916874e+03 -5.08533496e+03 -5.03150117e+03 -5.20702591e+03 -5.15318516e+03 -5.09934442e+03 -5.04550367e+03 
        </DataArray>
      </PointData>
    </Piece>
    <Piece NumberOfPoints="16" NumberOfCells="9">
      <Points>
        <DataArray type="Float64" NumberOfComponents="3" format="ascii">
          5.00000000e+00 0.00000000e+00 0.00000000e+00 
5.83333349e+00 0.00000000e+00 0.00000000e+00 
6.66666651e+00 0.00000000e+00 0.00000000e+00 
7.50000000e+00 0.00000000e+00 0.00000000e+00 
5.00000000e+00 3.33333343e-01 0.00000000e+00 
5.83333349e+00 3.33333343e-01 0.00000000e+00 
6.66666651e+00 3.33333343e-01 0.00000000e+00 
7.50000000e+00 3.33333343e-01 0.00000000e+00 
5.00000000e+00 6.66666687e-01 0.00000000e+00 
5.83333349e+00 6.66666687e-01 0.00000000e+00 
6.66666651e+00 6.66666687e-01 0.00000000e+00 
7.50000000e+00 6.66666687e-01 0.00000000e+00 
5.00000000e+00 1.00000000e+00 0.00000000e+00 
5.83333349e+00 1.00000000e+00 0.00000000e+00 
6.66666651e+00 1.00000000e+00 0.00000000e+00 
7.50000000e+00 1.00000000e+00 0.00000000e+00 

        </DataArray>
      </Points>
      <Cells>
        <DataArray type="Int32" Name="connectivity" format="ascii">
0 1 5 4
4 5 9 8
8 9 13 12
1 2 6 5
5 6 10 9
9 10 14 13
2 3 7 6
6 7 11 10
10 11 15 14

        </DataArray>
        <DataArray type="Int32" Name="offsets" format="ascii">
4 8 12 16 20 24 28 32 36 
        </DataArray>
        <DataArray type="UInt8" Name="types" format="ascii">
9 9 9 9 9 9 9 9 9 
        </DataArray>
      </Cells>
      <PointData>
        <DataArray type="Float64" Name="u">