<?xml version="1.0"?>
<VTKFile type="UnstructuredGrid" version="0.1" byte_order="LittleEndian">
  <UnstructuredGrid>
    <Piece NumberOfPoints="16" NumberOfCells="9">
      <Points>
        <DataArray type="Float64" NumberOfComponents="3" format="ascii">
          0.00000000e+00 3.00000000e+00 0.00000000e+00 
8.33333313e-01 3.00000000e+00 0.00000000e+00 
1.66666663e+00 3.00000000e+00 0.00000000e+00 
2.50000000e+00 3.00000000e+00 0.00000000e+00 
0.00000000e+00 3.33333325e+00 0.00000000e+00 
8.33333313e-01 3.33333325e+00 0.00000000e+00 
1.66666663e+00 3.33333325e+00 0.00000000e+00 
2.50000000e+00 3.33333325e+00 0.00000000e+00 
0.00000000e+00 3.66666675e+00 0.00000000e+00 
8.33333313e-01 3.66666675e+00 0.00000000e+00 
1.66666663e+00 3.66666675e+00 0.00000000e+00 
2.50000000e+00 3.66666675e+00 0.00000000e+00 
0.00000000e+00 4.00000000e+00 0.00000000e+00 
8.33333313e-01 4.00000000e+00 0.00000000e+00 
1.66666663e+00 4.00000000e+00 0.00000000e+00 
2.50000000e+00 4.00000000e+00 0.00000000e+00 

        </DataArray>
      </Points>
      <Cells>
        <DataArray type="Int32" Name="connectivity" format="ascii">
0 1 5 4
4 5 9 8
8 9 13 12
1 2 6 5
5 6 10 9
9 10 14 13
2 3 7 6
6 7 11 10
10 11 15 14

        </DataArray>
        <DataArray type="Int32" Name="offsets" format="ascii">
4 8 12 16 20 24 28 32 36 
        </DataArray>
        <DataArray type="UInt8" Name="types" format="ascii">
9 9 9 9 9 9 9 9 9 
        </DataArray>
      </Cells>
      <PointData>
        <DataArray type="Float64" Name="u">
          0.00000000e+00 0.00000000e+00 0.00000000e+00 0.00000000e+00 8.88888889e+01 9.19287906e+01 9.13034215e+01 9.94447638e+01 1.55555556e+02 1.57727237e+02 1.58241779e+02 1.62858203e+02 2.00000000e+02 2.00636271e+02 2.01828208e+02 2.03697716e+02 
        </DataArray>
        <DataArray type="Float64" Name="v">
          0.00000000e+00 0.00000000e+00 0.00000000e+00 0.00000000e+00 0.00000000e+00 -1.05151854e+00 -1.49827087e+00 -4.02592519e+00 0.00000000e+00 -9.20333661e-01 -2.07637340e+00 -3.92077904e+00 0.00000000e+00 -2.05051135e+00 -3.59145455e+00 -5.98341494e+00 
        </DataArray>
        <DataArray type="Float64" Name="p">
          -2.56598676e+03 -3.79001537e+03 -5.01404398e+03 -6.23807259e+03 -2.54469088e+03 -3.74606859e+03 -4.94744630e+03 -6.14882401e+03 -2.52339501e+03 -3.70212182e+03 -4.88084863e+03 -6.05957544e+03 -2.50209914e+03 -3.65817504e+03 -4.81425095e+03 -5.97032686e+03 
        </DataArray>
      </PointData>
    </Piece>
    <Piece NumberOfPoints="16" NumberOfCells="9">
      <Points>
        <DataArray type="Float64" NumberOfComponents="3" format="ascii">
          0.00000000e+00 4.00000000e+00 0.00000000e+00 
8.33333313e-01 4.00000000e+00 0.00000000e+00 
1.66666663e+00 4.00000000e+00 0.00000000e+00 
2.50000000e+00 4.00000000e+00 0.00000000e+00 
0.00000000e+00 4.33333349e+00 0.00000000e+00 
8.33333313e-01 4.33333349e+00 0.00000000e+00 
1.66666663e+00 4.33333349e+00 0.00000000e+00 
2.50000000e+00 4.33333349e+00 0.00000000e+00 
0.00000000e+00 4.66666651e+00 0.00000000e+00 
8.33333313e-01 4.66666651e+00 0.00000000e+00 
1.66666663e+00 4.66666651e+00 0.00000000e+00 
2.50000000e+00 4.66666651e+00 0.00000000e+00 
0.00000000e+00 5.00000000e+00 0.00000000e+00 
8.33333313e-01 5.00000000e+00 0.00000000e+00 
1.66666663e+00 5.00000000e+00 0.00000000e+00 
2.50000000e+00 5.00000000e+00 0.00000000e+00 

        </DataArray>
      </Points>
      <Cells>
        <DataArray type="Int32" Name="connectivity" format="ascii">
0 1 5 4
4 5 9 8
8 9 13 12
1 2 6 5
5 6 10 9
9 10 14 13
2 3 7 6
6 7 11 10
10 11 15 14

        </DataArray>
        <DataArray type="Int32" Name="offsets" format="ascii">
4 8 12 16 20 24 28 32 36 
        </DataArray>
        <DataArray type="UInt8" Name="types" format="ascii">
9 9 9 9 9 9 9 9 9 
        </DataArray>
      </Cells>
      <PointData>
        <DataArray type="Float64" Name="u">
          2.00000000e+02 2.00636271e+02 2.01828208e+02 2.03697716e+02 2.22222222e+02 2.21711848e+02 2.22718886e+02 2.22417177e+02 2.22222222e+02 2.20630170e+02 2.21513742e+02 2.19089031e+02 2.00000000e+02 1.97631439e+02 1.98621856e+02 1.94144826e+02 
        </DataArray>
        <DataArray type="Float64" Name="v">
          0.00000000e+00 -2.05051135e+00 -3.59145455e+00 -5.98341494e+00 0.00000000e+00 -2.13165064e+00 -4.08550901e+00 -5.77632839e+00 0.00000000e+00 -2.12878834e+00 -3.89973812e+00 -5.84763301e+00 0.00000000e+00 -1.49285238e+00 -3.18219955e+00 -4.49528942e+00 
        </DataArray>
        <DataArray type="Float64" Name="p">
          -2.46380705e+03 -3.61868320e+03 -4.77355935e+03 -5.92843551e+03 -2.27706386e+03 -3.43937702e+03 -4.60169018e+03 -5.76400334e+03 -2.09032067e+03 -3.26007084e+03 -4.42982101e+03 -5.59957118e+03 -1.90357749e+03 -3.08076466e+03 -4.25795184e+03 -5.43513901e+03 
        </DataArray>
      </PointData>
    </Piece>
    <Piece NumberOfPoints="16" NumberOfCells="9">
      <Points>
        <DataArray type="Float64" NumberOfComponents="3" format="ascii">
          0.00000000e+00 5.00000000e+00 0.00000000e+00 
8.33333313e-01 5.00000000e+00 0.00000000e+00 
1.66666663e+00 5.00000000e+00 0.00000000e+00 
2.50000000e+00 5.00000000e+00 0.00000000e+00 
0.00000000e+00 5.33333349e+00 0.00000000e+00 
8.33333313e-01 5.33333349e+00 0.00000000e+00 
1.66666663e+00 5.33333349e+00 0.00000000e+00 
2.50000000e+00 5.33333349e+00 0.00000000e+00 
0.00000000e+00 5.66666651e+00 0.00000000e+00 
8.33333313e-01 5.66666651e+00 0.00000000e+00 
1.66666663e+00 5.66666651e+00 0.00000000e+00 
2.50000000e+00 5.66666651e+00 0.00000000e+00 
0.00000000e+00 6.00000000e+00 0.00000000e+00 
8.33333313e-01 6.00000000e+00 0.00000000e+00 
1.66666663e+00 6.00000000e+00 0.00000000e+00 
2.50000000e+00 6.00000000e+00 0.00000000e+00 

        </DataArray>
      </Points>
      <Cells>
        <DataArray type="Int32" Name="connectivity" format="ascii">
0 1 5 4
4 5 9 8
8 9 13 12
1 2 6 5
5 6 10 9
9 10 14 13
2 3 7 6
6 7 11 10
10 11 15 14

        </DataArray>
        <DataArray type="Int32" Name="offsets" format="ascii">
4 8 12 16 20 24 28 32 36 
        </DataArray>
        <DataArray type="UInt8" Name="types" format="ascii">
9 9 9 9 9 9 9 9 9 
        </DataArray>
      </Cells>
      <PointData>
        <DataArray type="Float64" Name="u">
          2.00000000e+02 1.97631439e+02 1.98621856e+02 1.94144826e+02 1.55555556e+02 1.53146113e+02 1.54005291e+02 1.48623445e+02 8.88888889e+01 8.70982761e+01 8.74959297e+01 8.23390203e+01 0.00000000e+00 0.00000000e+00 0.00000000e+00 0.00000000e+00 
        </DataArray>
        <DataArray type="Float64" Name="v">
          0.00000000e+00 -1.49285238e+00 -3.18219955e+00 -4.49528942e+00 0.00000000e+00 -5.53122863e-01 -1.57683530e+00 -2.54790265e+00 0.00000000e+00 -5.56282593e-01 -1.40591270e+00 -1.03910586e+00 0.00000000e+00 0.00000000e+00 0.00000000e+00 0.00000000e+00 
        </DataArray>
        <DataArray type="Float64" Name="p">
          -1.90533191e+03 -3.06358461e+03 -4.22183731e+03 -5.38009001e+03 -1.87191259e+03 -3.02671009e+03 -4.18150760e+03 -5.33630510e+03 -1.83849327e+03 -2.98983558e+03 -4.14117788e+03 -5.29252019e+03 -1.80507396e+03 -2.95296106e+03 -4.10084817e+03 -5.24873528e+03 
        </DataArray>
      </PointData>
    </Piece>
    <Piece NumberOfPoints="16" NumberOfCells="9">
      <Points>
        <DataArray type="Float64" NumberOfComponents="3" format="ascii">
          2.50000000e+00 0.00000000e+00 0.00000000e+00 
3.33333325e+00 0.00000000e+00 0.00000000e+00 
4.16666651e+00 0.00000000e+00 0.00000000e+00 
5.00000000e+00 0.00000000e+00 0.00000000e+00 
2.50000000e+00 3.33333343e-01 0.00000000e+00 
3.33333325e+00 3.33333343e-01 0.00000000e+00 
4.16666651e+00 3.33333343e-01 0.00000000e+00 
5.00000000e+00 3.33333343e-01 0.00000000e+00 
2.50000000e+00 6.66666687e-01 0.00000000e+00 
3.33333325e+00 6.66666687e-01 0.00000000e+00 
4.16666651e+00 6.66666687e-01 0.00000000e+00 
5.00000000e+00 6.66666687e-01 0.00000000e+00 
2.50000000e+00 1.00000000e+00 0.00000000e+00 
3.33333325e+00 1.00000000e+00 0.00000000e+00 
4.16666651e+00 1.00000000e+00 0.00000000e+00 
5.00000000e+00 1.00000000e+00 0.00000000e+00 

        </DataArray>
      </Points>
      <Cells>
        <DataArray type="Int32" Name="connectivity" format="ascii">
0 1 5 4
4 5 9 8
8 9 13 12
1 2 6 5
5 6 10 9
9 10 14 13
2 3 7 6
6 7 11 10
10 11 15 14

        </DataArray>
        <DataArray type="Int32" Name="offsets" format="ascii">
4 8 12 16 20 24 28 32 36 
        </DataArray>
        <DataArray type="UInt8" Name="types" format="ascii">
9 9 9 9 9 9 9 9 9 
        </DataArray>
      </Cells>
      <PointData>
        <DataArray type="Float64" Name="u">
          0.00000000e+00 0.00000000e+00 0.00000000e+00 0.00000000e+00 0.00000000e+00 -3.20463601e+00 -5.55774593e+00 -1.01146730e+01 0.00000000e+00 -5.58237975e+00 -9.90568627e+00 -1.71468332e+01 0.00000000e+00 -7.07930753e+00 -1.23690408e+01 -2.00538560e+01 
        </DataArray>
        <DataArray type="Float64" Name="v">
          0.00000000e+00 0.00000000e+00 0.00000000e+00 0.00000000e+00 0.00000000e+00 9.62738266e-01 1.04189429e+00 8.63646843e-01 0.00000000e+00 2.81342388e+00 2.88868372e+00 2.15732280e+00 0.00000000e+00 6.14119914e+00 6.04047156e+00 4.19033769e+00 
        </DataArray>
        <DataArray type="Float64" Name="p">
          -6.27104375e+03 -6.22824474e+03 -6.18544572e+03 -6.14264671e+03 -6.26005670e+03 -6.21627907e+03 -6.17250144e+03 -6.12872381e+03 -6.24906964e+03 -6.20431340e+03 -6.15955716e+03 -6.11480091e+03 -6.23808258e+03 -6.19234773e+03 -6.14661287e+03 -6.10087802e+03 
        </DataArray>
      </PointData>
    </Piece>
    <Piece NumberOfPoints="16" NumberOfCells="9">
      <Points>
        <DataArray type="Float64" NumberOfComponents="3" format="ascii">
          2.50000000e+00 1.00000000e+00 0.00000000e+00 
3.33333325e+00 1.00000000e+00 0.00000000e+00 
4.16666651e+00 1.00000000e+00 0.00000000e+00 
5.00000000e+00 1.00000000e+00 0.00000000e+00 
2.50000000e+00 1.33333337e+00 0.00000000e+00 
3.33333325e+00 1.33333337e+00 0.00000000e+00 
4.16666651e+00 1.33333337e+00 0.00000000e+00 
5.00000000e+00 1.33333337e+00 0.00000000e+00 
2.50000000e+00 1.66666663e+00 0.00000000e+00 
3.33333325e+00 1.66666663e+00 0.00000000e+00 
4.16666651e+00 1.66666663e+00 0.00000000e+00 
5.00000000e+00 1.66666663e+00 0.00000000e+00 
2.50000000e+00 2.00000000e+00 0.00000000e+00 
3.33333325e+00 2.00000000e+00 0.00000000e+00 
4.16666651e+00 2.00000000e+00 0.00000000e+00 
5.00000000e+00 2.00000000e+00 0.00000000e+00 

        </DataArray>
      </Points>
      <Cells>
        <DataArray type="Int32" Name="connectivity" format="ascii">
0 1 5 4
4 5 9 8
8 9 13 12
1 2 6 5
5 6 10 9
9 10 14 13
2 3 7 6
6 7 11 10
10 11 15 14

        </DataArray>
        <DataArray type="Int32" Name="offsets" format="ascii">
4 8 12 16 20 24 28 32 36 
        </DataArray>
        <DataArray type="UInt8" Name="types" format="ascii">
9 9 9 9 9 9 9 9 9 
        </DataArray>
      </Cells>
      <PointData>
        <DataArray type="Float64" Name="u">
          0.00000000e+00 -7.07930753e+00 -1.23690408e+01 -2.00538560e+01 0.00000000e+00 -7.63972320e+00 -1.24248499e+01 -1.85735467e+01 0.00000000e+00 -7.07715304e+00 -9.67261600e+00 -1.21546264e+01 0.00000000e+00 -4.88379864e+00 -3.44148541e+00 -1.50217638e-01 
        </DataArray>
        <DataArray type="Float64" Name="v">
          0.00000000e+00 6.14119914e+00 6.04047156e+00 4.19033769e+00 0.00000000e+00 1.00518459e+01 9.10803229e+00 5.48483135e+00 0.00000000e+00 1.29589504e+01 1.10207297e+01 5.46932798e+00 0.00000000e+00 1.57612034e+01 1.16297796e+01 3.51783774e+00 
        </DataArray>
        <DataArray type="Float64" Name="p">
          -6.22489921e+03 -6.18890265e+03 -6.15290610e+03 -6.11690954e+03 -6.30289084e+03 -6.26244158e+03 -6.22199232e+03 -6.18154307e+03 -6.38088247e+03 -6.33598051e+03 -6.29107855e+03 -6.24617659e+03 -6.45887410e+03 -6.40951944e+03 -6.36016478e+03 -6.31081012e+03 
        </DataArray>
      </PointData>
    </Piece>
    <Piece NumberOfPoints="16" NumberOfCells="9">
      <Points>
        <DataArray type="Float64" NumberOfComponents="3" format="ascii">
          2.50000000e+00 2.00000000e+00 0.00000000e+00 
3.33333325e+00 2.00000000e+00 0.00000000e+00 
4.16666651e+00 2.00000000e+00 0.00000000e+00 
5.00000000e+00 2.00000000e+00 0.00000000e+00 
2.50000000e+00 2.33333325e+00 0.00000000e+00 
3.33333325e+00 2.33333325e+00 0.00000000e+00 
4.16666651e+00 2.33333325e+00 0.00000000e+00 
5.00000000e+00 2.33333325e+00 0.00000000e+00 
2.50000000e+00 2.66666675e+00 0.00000000e+00 
3.33333325e+00 2.66666675e+00 0.00000000e+00 
4.16666651e+00 2.66666675e+00 0.00000000e+00 
5.00000000e+00 2.66666675e+00 0.00000000e+00 
2.50000000e+00 3.00000000e+00 0.00000000e+00 
3.33333325e+00 3.00000000e+00 0.00000000e+00 
4.16666651e+00 3.00000000e+00 0.00000000e+00 
5.00000000e+00 3.00000000e+00 0.00000000e+00 

        </DataArray>
      </Points>
      <Cells>
        <DataArray type="Int32" Name="connectivity" format="ascii">
0 1 5 4
4 5 9 8
8 9 13 12
1 2 6 5
5 6 10 9
9 10 14 13
2 3 7 6
6 7 11 10
10 11 15 14

        </DataArray>
        <DataArray type="Int32" Name="offsets" format="ascii">
4 8 12 16 20 24 28 32 36 
        </DataArray>
        <DataArray type="UInt8" Name="types" format="ascii">
9 9 9 9 9 9 9 9 9 
        </DataArray>
      </Cells>
      <PointData>
        <DataArray type="Float64" Name="u">
          0.00000000e+00 -4.88379864e+00 -3.44148541e+00 -1.50217638e-01 0.00000000e+00 1.46687647e-01 6.84786999e+00 2.00045111e+01 0.00000000e+00 1.44663291e+01 2.67081283e+01 4.81935351e+01 0.00000000e+00 5.29499691e+01 6.41234315e+01 8.74357412e+01 
        </DataArray>
        <DataArray type="Float64" Name="v">
          0.00000000e+00 1.57612034e+01 1.16297796e+01 3.51783774e+00 0.00000000e+00 1.68353014e+01 8.29649614e+00 -1.78046697e+00 0.00000000e+00 1.23883397e+01 3.80197756e+00 -6.23886374e+00 0.00000000e+00 -1.00019357e+00 -5.83296068e+00 -1.05616152e+01 
        </DataArray>
        <DataArray type="Float64" Name="p">
          -6.41544833e+03 -6.42025647e+03 -6.42506461e+03 -6.42987275e+03 -6.72110684e+03 -6.56023865e+03 -6.39937045e+03 -6.23850226e+03 -7.02676535e+03 -6.70022082e+03 -6.37367630e+03 -6.04713177e+03 -7.33242386e+03 -6.84020300e+03 -6.34798215e+03 -5.85576129e+03 
        </DataArray>
      </PointData>
    </Piece>
    <Piece NumberOfPoints="16" NumberOfCells="9">
      <Points>
        <DataArray type="Float64" NumberOfComponents="3" format="ascii">
          2.50000000e+00 3.00000000e+00 0.00000000e+00 
3.33333325e+00 3.00000000e+00 0.00000000e+00 
4.16666651e+00 3.00000000e+00 0.00000000e+00 
5.00000000e+00 3.00000000e+00 0.00000000e+00 
2.50000000e+00 3.33333325e+00 0.00000000e+00 
3.33333325e+00 3.33333325e+00 0.00000000e+00 
4.16666651e+00 3.33333325e+00 0.00000000e+00 
5.00000000e+00 3.33333325e+00 0.00000000e+00 
2.50000000e+00 3.66666675e+00 0.00000000e+00 
3.33333325e+00 3.66666675e+00 0.00000000e+00 
4.16666651e+00 3.66666675e+00 0.00000000e+00 
5.00000000e+00 3.66666675e+00 0.00000000e+00 
2.50000000e+00 4.00000000e+00 0.00000000e+00 
3.33333325e+00 4.00000000e+00 0.00000000e+00 
4.16666651e+00 4.00000000e+00 0.00000000e+00 
5.00000000e+00 4.00000000e+00 0.00000000e+00 

        </DataArray>
      </Points>
      <Cells>
        <DataArray type="Int32" Name="connectivity" format="ascii">
0 1 5 4
4 5 9 8
8 9 13 12
1 2 6 5
5 6 10 9
9 10 14 13
2 3 7 6
6 7 11 10
10 11 15 14

        </DataArray>
        <DataArray type="Int32" Name="offsets" format="ascii">
4 8 12 16 20 24 28 32 36 
        </DataArray>
        <DataArray type="UInt8" Name="types" format="ascii">
9 9 9 9 9 9 9 9 9 
        </DataArray>
      </Cells>
      <PointData>
        <DataArray type="Float64" Name="u">
          0.00000000e+00 5.29499691e+01 6.41234315e+01 8.74357412e+01 9.94447638e+01 1.06907798e+02 1.17554918e+02 1.28662170e+02 1.62858203e+02 1.61865934e+02 1.67146076e+02 1.69346447e+02 2.03697716e+02 1.98664306e+02 2.01413738e+02 1.96665454e+02 
        </DataArray>
        <DataArray type="Float64" Name="v">
          0.00000000e+00 -1.00019357e+00 -5.83296068e+00 -1.05616152e+01 -4.02592519e+00 -1.22112210e+01 -1.34887566e+01 -1.27838323e+01 -3.92077904e+00 -1.24664909e+01 -1.52833682e+01 -1.48177622e+01 -5.98341494e+00 -1.22729997e+01 -1.53121626e+01 -1.73303482e+01 
        </DataArray>
        <DataArray type="Float64" Name="p">
          -7.46963510e+03 -6.88486099e+03 -6.30008687e+03 -5.71531276e+03 -6.83497699e+03 -6.51751936e+03 -6.20006174e+03 -5.88260412e+03 -6.20031887e+03 -6.15017774e+03 -6.10003660e+03 -6.04989547e+03 -5.56566075e+03 -5.78283611e+03 -6.00001147e+03 -6.21718683e+03 
        </DataArray>
      </PointData>
    </Piece>
    <Piece NumberOfPoints="16" NumberOfCells="9">
      <Points>
        <DataArray type="Float64" NumberOfComponents="3" format="ascii">
          2.50000000e+00 4.00000000e+00 0.00000000e+00 
3.33333325e+00 4.00000000e+00 0.00000000e+00 
4.16666651e+00 4.00000000e+00 0.00000000e+00 
5.00000000e+00 4.00000000e+00 0.00000000e+00 
2.50000000e+00 4.33333349e+00 0.00000000e+00 
3.33333325e+00 4.33333349e+00 0.00000000e+00 
4.16666651e+00 4.33333349e+00 0.00000000e+00 
5.00000000e+00 4.33333349e+00 0.00000000e+00 
2.50000000e+00 4.66666651e+00 0.00000000e+00 
3.33333325e+00 4.66666651e+00 0.00000000e+00 
4.16666651e+00 4.66666651e+00 0.00000000e+00 
5.00000000e+00 4.66666651e+00 0.00000000e+00 
2.50000000e+00 5.00000000e+00 0.00000000e+00 
3.33333325e+00 5.00000000e+00 0.00000000e+00 
4.16666651e+00 5.00000000e+00 0.00000000e+00 
5.00000000e+00 5.00000000e+00 0.00000000e+00 

        </DataArray>
      </Points>
      <Cells>
        <DataArray type="Int32" Name="connectivity" format="ascii">
0 1 5 4
4 5 9 8
8 9 13 12
1 2 6 5
5 6 10 9
9 10 14 13
2 3 7 6
6 7 11 10
10 11 15 14

        </DataArray>
        <DataArray type="Int32" Name="offsets" format="ascii">
4 8 12 16 20 24 28 32 36 
        </DataArray>
        <DataArray type="UInt8" Name="types" format="ascii">
9 9 9 9 9 9 9 9 9 
        </DataArray>
      </Cells>
      <PointData>
        <DataArray type="Float64" Name="u">
          2.03697716e+02 1.98664306e+02 2.01413738e+02 1.96665454e+02 2.22417177e+02 2.15566919e+02 2.14335922e+02 2.06504148e+02 2.19089031e+02 2.10786732e+02 2.06911774e+02 1.96374694e+02 1.94144826e+02 1.85532084e+02 1.80145748e+02 1.68564349e+02 
        </DataArray>
        <DataArray type="Float64" Name="v">
          -5.98341494e+00 -1.22729997e+01 -1.53121626e+01 -1.73303482e+01 -5.77632839e+00 -9.12366824e+00 -1.30601208e+01 -1.66730457e+01 -5.84763301e+00 -8.32015224e+00 -1.08243583e+01 -1.42423274e+01 -4.49528942e+00 -3.71811642e+00 -6.67056214e+00 -1.10099895e+01 
        </DataArray>
        <DataArray type="Float64" Name="p">
          -5.38587771e+03 -5.65521584e+03 -5.92455396e+03 -6.19389208e+03 -5.13341253e+03 -5.36626133e+03 -5.59911013e+03 -5.83195893e+03 -4.88094735e+03 -5.07730683e+03 -5.27366630e+03 -5.47002578e+03 -4.62848217e+03 -4.78835232e+03 -4.94822247e+03 -5.10809263e+03 
        </DataArray>
      </PointData>
    </Piece>
    <Piece NumberOfPoints="16" NumberOfCells="9">
      <Points>
        <DataArray type="Float64" NumberOfComponents="3" format="ascii">
          2.50000000e+00 5.00000000e+00 0.00000000e+00 
3.33333325e+00 5.00000000e+00 0.00000000e+00 
4.16666651e+00 5.00000000e+00 0.00000000e+00 
5.00000000e+00 5.00000000e+00 0.00000000e+00 
2.50000000e+00 5.33333349e+00 0.00000000e+00 
3.33333325e+00 5.33333349e+00 0.00000000e+00 
4.16666651e+00 5.33333349e+00 0.00000000e+00 
5.00000000e+00 5.33333349e+00 0.00000000e+00 
2.50000000e+00 5.66666651e+00 0.00000000e+00 
3.33333325e+00 5.66666651e+00 0.00000000e+00 
4.16666651e+00 5.66666651e+00 0.00000000e+00 
5.00000000e+00 5.66666651e+00 0.00000000e+00 
2.50000000e+00 6.00000000e+00 0.00000000e+00 
3.33333325e+00 6.00000000e+00 0.00000000e+00 
4.16666651e+00 6.00000000e+00 0.00000000e+00 
5.00000000e+00 6.00000000e+00 0.00000000e+00 

        </DataArray>
      </Points>
      <Cells>
        <DataArray type="Int32" Name="connectivity" format="ascii">
0 1 5 4
4 5 9 8
8 9 13 12
1 2 6 5
5 6 10 9
9 10 14 13
2 3 7 6
6 7 11 10
10 11 15 14

        </DataArray>
        <DataArray type="Int32" Name="offsets" format="ascii">
4 8 12 16 20 24 28 32 36 
        </DataArray>
        <DataArray type="UInt8" Name="types" format="ascii">
9 9 9 9 9 9 9 9 9 
        </DataArray>
      </Cells>
      <PointData>
        <DataArray type="Float64" Name="u">
          1.94144826e+02 1.85532084e+02 1.80145748e+02 1.68564349e+02 1.48623445e+02 1.41106450e+02 1.35633793e+02 1.27337654e+02 8.23390203e+01 8.42993906e+01 8.30112745e+01 8.29526176e+01 0.00000000e+00 3.74266849e+01 3.81482762e+01 4.91707304e+01 
        </DataArray>
        <DataArray type="Float64" Name="v">
          -4.49528942e+00 -3.71811642e+00 -6.67056214e+00 -1.10099895e+01 -2.54790265e+00 3.55829584e-01 -1.80241020e+00 -7.02299850e+00 -1.03910586e+00 4.89400747e-01 -2.75250064e+00 -5.97360897e+00 0.00000000e+00 -5.64722312e+00 -4.00846960e+00 -2.33370542e+00 
        </DataArray>
        <DataArray type="Float64" Name="p">
          -4.73773495e+03 -4.80952967e+03 -4.88132439e+03 -4.95311911e+03 -5.00769914e+03 -4.89891852e+03 -4.79013790e+03 -4.68135728e+03 -5.27766334e+03 -4.98830738e+03 -4.69895142e+03 -4.40959545e+03 -5.54762753e+03 -5.07769623e+03 -4.60776493e+03 -4.13783363e+03 
        </DataArray>
      </PointData>
    </Piece>
    <Piece NumberOfPoints="16" NumberOfCells="9">
      <Points>
        <DataArray type="Float64" NumberOfComponents="3" format="ascii">
          2.50000000e+00 6.00000000e+00 0.00000000e+00 
3.33333325e+00 6.00000000e+00 0.00000000e+00 
4.16666651e+00 6.00000000e+00 0.00000000e+00 
5.00000000e+00 6.00000000e+00 0.00000000e+00 
2.50000000e+00 6.33333349e+00 0.00000000e+00 
3.33333325e+00 6.33333349e+00 0.00000000e+00 
4.16666651e+00 6.33333349e+00 0.00000000e+00 
5.00000000e+00 6.33333349e+00 0.00000000e+00 
2.50000000e+00 6.66666651e+00 0.00000000e+00 
3.33333325e+00 6.66666651e+00 0.00000000e+00 
4.16666651e+00 6.66666651e+00 0.00000000e+00 
5.00000000e+00 6.66666651e+00 0.00000000e+00 
2.50000000e+00 7.00000000e+00 0.00000000e+00 
3.33333325e+00 7.00000000e+00 0.00000000e+00 
4.16666651e+00 7.00000000e+00 0.00000000e+00 
5.00000000e+00 7.00000000e+00 0.00000000e+00 

        </DataArray>
      </Points>
      <Cells>
        <DataArray type="Int32" Name="connectivity" format="ascii">
0 1 5 4
4 5 9 8
8 9 13 12
1 2 6 5
5 6 10 9
9 10 14 13
2 3 7 6
6 7 11 10
10 11 15 14

        </DataArray>
        <DataArray type="Int32" Name="offsets" format="ascii">
4 8 12 16 20 24 28 32 36 
        </DataArray>
        <DataArray type="UInt8" Name="types" format="ascii">
9 9 9 9 9 9 9 9 9 
        </DataArray>
      </Cells>
      <PointData>
        <DataArray type="Float64" Name="u">
          0.00000000e+00 3.74266849e+01 3.81482762e+01 4.91707304e+01 0.00000000e+00 8.17921400e+00 1.23054096e+01 2.11255509e+01 0.00000000e+00 -2.11388536e+00 -6.92230980e-01 2.89777783e+00 0.00000000e+00 -5.44847194e+00 -6.97804275e+00 -8.65787501e+00 
        </DataArray>
        <DataArray type="Float64" Name="v">
          0.00000000e+00 -5.64722312e+00 -4.00846960e+00 -2.33370542e+00 0.00000000e+00 -1.37483313e+01 -8.32523612e+00 -2.66821758e+00 0.00000000e+00 -1.55739812e+01 -9.46087976e+00 -3.75727311e+00 0.00000000e+00 -1.35599842e+01 -1.01424539e+01 -5.22660567e+00 
        </DataArray>
        <DataArray type="Float64" Name="p">
          -5.51295514e+03 -5.13263991e+03 -4.75232469e+03 -4.37200946e+03 -5.26539280e+03 -5.00397026e+03 -4.74254772e+03 -4.48112519e+03 -5.01783046e+03 -4.87530061e+03 -4.73277076e+03 -4.59024091e+03 -4.77026812e+03 -4.74663096e+03 -4.72299380e+03 -4.69935664e+03 
        </DataArray>
      </PointData>
    </Piece>
    <Piece NumberOfPoints="16" NumberOfCells="9">
      <Points>
        <DataArray type="Float64" NumberOfComponents="3" format="ascii">
          2.50000000e+00 7.00000000e+00 0.00000000e+00 
3.33333325e+00 7.00000000e+00 0.00000000e+00 
4.16666651e+00 7.00000000e+00 0.00000000e+00 
5.00000000e+00 7.00000000e+00 0.00000000e+00 
2.50000000e+00 7.33333349e+00 0.00000000e+00 
3.33333325e+00 7.33333349e+00 0.00000000e+00 
4.16666651e+00 7.33333349e+00 0.00000000e+00 
5.00000000e+00 7.33333349e+00 0.00000000e+00 
2.50000000e+00 7.66666651e+00 0.00000000e+00 
3.33333325e+00 7.66666651e+00 0.00000000e+00 
4.16666651e+00 7.66666651e+00 0.00000000e+00 
5.00000000e+00 7.66666651e+00 0.00000000e+00 
2.50000000e+00 8.00000000e+00 0.00000000e+00 
3.33333325e+00 8.00000000e+00 0.00000000e+00 
4.16666651e+00 8.00000000e+00 0.00000000e+00 
5.00000000e+00 8.00000000e+00 0.00000000e+00 

        </DataArray>
      </Points>
      <Cells>
        <DataArray type="Int32" Name="connectivity" format="ascii">
0 1 5 4
4 5 9 8
8 9 13 12
1 2 6 5
5 6 10 9
9 10 14 13
2 3 7 6
6 7 11 10
10 11 15 14

        </DataArray>
        <DataArray type="Int32" Name="offsets" format="ascii">
4 8 12 16 20 24 28 32 36 
        </DataArray>
        <DataArray type="UInt8" Name="types" format="ascii">
9 9 9 9 9 9 9 9 9 
        </DataArray>
      </Cells>
      <PointData>
        <DataArray type="Float64" Name="u">
          0.00000000e+00 -5.44847194e+00 -6.97804275e+00 -8.65787501e+00 0.00000000e+00 -6.51159686e+00 -1.01447555e+01 -1.43596631e+01 0.00000000e+00 -6.35761823e+00 -1.08650942e+01 -1.64108283e+01 0.00000000e+00 -5.48696142e+00 -9.82705861e+00 -1.55555416e+01 
        </DataArray>
        <DataArray type="Float64" Name="v">
          0.00000000e+00 -1.35599842e+01 -1.01424539e+01 -5.22660567e+00 0.00000000e+00 -1.05189969e+01 -8.63690515e+00 -5.08387164e+00 0.00000000e+00 -7.87432617e+00 -6.76574075e+00 -4.25297834e+00 0.00000000e+00 -4.63317482e+00 -4.31933285e+00 -2.86644089e+00 
        </DataArray>
        <DataArray type="Float64" Name="p">
          -4.79439584e+03 -4.73794402e+03 -4.68149220e+03 -4.62504038e+03 -4.72804144e+03 -4.68406771e+03 -4.64009399e+03 -4.59612027e+03 -4.66168704e+03 -4.63019141e+03 -4.59869578e+03 -4.56720015e+03 -4.59533264e+03 -4.57631511e+03 -4.55729757e+03 -4.53828004e+03 
        </DataArray>
      </PointData>
    </Piece>
    <Piece NumberOfPoints="16" NumberOfCells="9">
      <Points>
        <DataArray type="Float64" NumberOfComponents="3" format="ascii">
          2.50000000e+00 8.00000000e+00 0.00000000e+00 
3.33333325e+00 8.00000000e+00 0.00000000e+00 
4.16666651e+00 8.00000000e+00 0.00000000e+00 
5.00000000e+00 8.00000000e+00 0.00000000e+00 
2.50000000e+00 8.33333302e+00 0.00000000e+00 
3.33333325e+00 8.33333302e+00 0.00000000e+00 
4.16666651e+00 8.33333302e+00 0.00000000e+00 
5.00000000e+00 8.33333302e+00 0.00000000e+00 
2.50000000e+00 8.66666698e+00 0.00000000e+00 
3.33333325e+00 8.66666698e+00 0.00000000e+00 
4.16666651e+00 8.66666698e+00 0.00000000e+00 
5.00000000e+00 8.66666698e+00 0.00000000e+00 
2.50000000e+00 9.00000000e+00 0.00000000e+00 
3.33333325e+00 9.00000000e+00 0.00000000e+00 
4.16666651e+00 9.00000000e+00 0.00000000e+00 
5.00000000e+00 9.00000000e+00 0.00000000e+00 

        </DataArray>
      </Points>
      <Cells>
        <DataArray type="Int32" Name="connectivity" format="ascii">
0 1 5 4
4 5 9 8
8 9 13 12
1 2 6 5
5 6 10 9
9 10 14 13
2 3 7 6
6 7 11 10
10 11 15 14

        </DataArray>
        <DataArray type="Int32" Name="offsets" format="ascii">
4 8 12 16 20 24 28 32 36 
        </DataArray>
        <DataArray type="UInt8" Name="types" format="ascii">
9 9 9 9 9 9 9 9 9 
        </DataArray>
      </Cells>
      <PointData>
        <DataArray type="Float64" Name="u">
          0.00000000e+00 -5.48696142e+00 -9.82705861e+00 -1.55555416e+01 0.00000000e+00 -4.12869368e+00 -7.46374887e+00 -1.24093907e+01 0.00000000e+00 -2.30086922e+00 -4.06405023e+00 -7.17539867e+00 0.00000000e+00 0.00000000e+00 0.00000000e+00 0.00000000e+00 
        </DataArray>
        <DataArray type="Float64" Name="v">
          0.00000000e+00 -4.63317482e+00 -4.31933285e+00 -2.86644089e+00 0.00000000e+00 -2.08315310e+00 -2.08568171e+00 -1.36844456e+00 0.00000000e+00 -6.81800735e-01 -7.38895360e-01 -4.78349095e-01 0.00000000e+00 0.00000000e+00 0.00000000e+00 0.00000000e+00 
        </DataArray>
        <DataArray type="Float64" Name="p">
          -4.60846923e+03 -4.58326201e+03 -4.55805479e+03 -4.53284757e+03 -4.61853381e+03 -4.59334152e+03 -4.56814922e+03 -4.54295693e+03 -4.62859840e+03 -4.60342103e+03 -4.57824365e+03 -4.55306628e+03 -4.63866298e+03 -4.61350053e+03 -4.58833809e+03 -4.56317564e+03 
        </DataArray>
      </PointData>
    </Piece>
    <Piece NumberOfPoints="16" NumberOfCells="9">
      <Points>
        <DataArray type="Float64" NumberOfComponents="3" format="ascii">
          5.00000000e+00 0.00000000e+00 0.00000000e+00 
5.83333349e+00 0.00000000e+00 0.00000000e+00 
6.66666651e+00 0.00000000e+00 0.00000000e+00 
7.50000000e+00 0.00000000e+00 0.00000000e+00 
5.00000000e+00 3.33333343e-01 0.00000000e+00 
5.83333349e+00 3.33333343e-01 0.00000000e+00 
6.66666651e+00 3.33333343e-01 0.00000000e+00 
7.50000000e+00 3.33333343e-01 0.00000000e+00 
5.00000000e+00 6.66666687e-01 0.00000000e+00 
5.83333349e+00 6.66666687e-01 0.00000000e+00 
6.66666651e+00 6.66666687e-01 0.00000000e+00 
7.50000000e+00 6.66666687e-01 0.00000000e+00 
5.00000000e+00 1.00000000e+00 0.00000000e+00 
5.83333349e+00 1.00000000e+00 0.00000000e+00 
6.66666651e+00 1.00000000e+00 0.00000000e+00 
7.50000000e+00 1.00000000e+00 0.00000000e+00 

        </DataArray>
      </Points>
      <Cells>
        <DataArray type="Int32" Name="connectivity" format="ascii">
0 1 5 4
4 5 9 8
8 9 13 12
1 2 6 5
5 6 10 9
9 10 14 13
2 3 7 6
6 7 11 10
10 11 15 14

        </DataArray>
        <DataArray type="Int32" Name="offsets" format="ascii">
4 8 12 16 20 24 28 32 36 
        </DataArray>
        <DataArray type="UInt8" Name="types" format="ascii">
9 9 9 9 9 9 9 9 9 
        </DataArray>
      </Cells>
      <PointData>
        <DataArray type="Float64" Name="u">