<?xml version="1.0"?>
<VTKFile type="UnstructuredGrid" version="0.1" byte_order="LittleEndian">
  <UnstructuredGrid>
    <Piece NumberOfPoints="16" NumberOfCells="9">
      <Points>
        <DataArray type="Float64" NumberOfComponents="3" format="ascii">
          0.00000000e+00 3.00000000e+00 0.00000000e+00 
8.33333313e-01 3.00000000e+00 0.00000000e+00 
1.66666663e+00 3.00000000e+00 0.00000000e+00 
2.50000000e+00 3.00000000e+00 0.00000000e+00 
0.00000000e+00 3.33333325e+00 0.00000000e+00 
8.33333313e-01 3.33333325e+00 0.00000000e+00 
1.66666663e+00 3.33333325e+00 0.00000000e+00 
2.50000000e+00 3.33333325e+00 0.00000000e+00 
0.00000000e+00 3.66666675e+00 0.00000000e+00 
8.33333313e-01 3.66666675e+00 0.00000000e+00 
1.66666663e+00 3.66666675e+00 0.00000000e+00 
2.50000000e+00 3.66666675e+00 0.00000000e+00 
0.00000000e+00 4.00000000e+00 0.00000000e+00 
8.33333313e-01 4.00000000e+00 0.00000000e+00 
1.66666663e+00 4.00000000e+00 0.00000000e+00 
2.50000000e+00 4.00000000e+00 0.00000000e+00 

        </DataArray>
      </Points>
      <Cells>
        <DataArray type="Int32" Name="connectivity" format="ascii">
0 1 5 4
4 5 9 8
8 9 13 12
1 2 6 5
5 6 10 9
9 10 14 13
2 3 7 6
6 7 11 10
10 11 15 14

        </DataArray>
        <DataArray type="Int32" Name="offsets" format="ascii">
4 8 12 16 20 24 28 32 36 
        </DataArray>
        <DataArray type="UInt8" Name="types" format="ascii">
9 9 9 9 9 9 9 9 9 
        </DataArray>
      </Cells>
      <PointData>
        <DataArray type="Float64" Name="u">
          0.00000000e+00 0.00000000e+00 0.00000000e+00 0.00000000e+00 8.88888889e+01 9.12459441e+01 9.08688516e+01 9.74287399e+01 1.55555556e+02 1.57110972e+02 1.57834058e+02 1.61228069e+02 2.00000000e+02 2.00163213e+02 2.01554620e+02 2.02423962e+02 
        </DataArray>
        <DataArray type="Float64" Name="v">
          0.00000000e+00 0.00000000e+00 0.00000000e+00 0.00000000e+00 0.00000000e+00 -8.13624911e-01 -1.09637322e+00 -3.57806378e+00 0.00000000e+00 -7.62428106e-01 -1.63570350e+00 -3.32657473e+00 0.00000000e+00 -1.61383053e+00 -2.78365877e+00 -4.83195479e+00 
        </DataArray>
        <DataArray type="Float64" Name="p">
          -1.88792948e+03 -3.26993998e+03 -4.65195049e+03 -6.03396099e+03 -1.87849794e+03 -3.23713264e+03 -4.59576734e+03 -5.95440204e+03 -1.86906640e+03 -3.20432530e+03 -4.53958419e+03 -5.87484309e+03 -1.85963487e+03 -3.17151796e+03 -4.48340105e+03 -5.79528413e+03 
        </DataArray>
      </PointData>
    </Piece>
    <Piece NumberOfPoints="16" NumberOfCells="9">
      <Points>
        <DataArray type="Float64" NumberOfComponents="3" format="ascii">
          0.00000000e+00 4.00000000e+00 0.00000000e+00 
8.33333313e-01 4.00000000e+00 0.00000000e+00 
1.66666663e+00 4.00000000e+00 0.00000000e+00 
2.50000000e+00 4.00000000e+00 0.00000000e+00 
0.00000000e+00 4.33333349e+00 0.00000000e+00 
8.33333313e-01 4.33333349e+00 0.00000000e+00 
1.66666663e+00 4.33333349e+00 0.00000000e+00 
2.50000000e+00 4.33333349e+00 0.00000000e+00 
0.00000000e+00 4.66666651e+00 0.00000000e+00 
8.33333313e-01 4.66666651e+00 0.00000000e+00 
1.66666663e+00 4.66666651e+00 0.00000000e+00 
2.50000000e+00 4.66666651e+00 0.00000000e+00 
0.00000000e+00 5.00000000e+00 0.00000000e+00 
8.33333313e-01 5.00000000e+00 0.00000000e+00 
1.66666663e+00 5.00000000e+00 0.00000000e+00 
2.50000000e+00 5.00000000e+00 0.00000000e+00 

        </DataArray>
      </Points>
      <Cells>
        <DataArray type="Int32" Name="connectivity" format="ascii">
0 1 5 4
4 5 9 8
8 9 13 12
1 2 6 5
5 6 10 9
9 10 14 13
2 3 7 6
6 7 11 10
10 11 15 14

        </DataArray>
        <DataArray type="Int32" Name="offsets" format="ascii">
4 8 12 16 20 24 28 32 36 
        </DataArray>
        <DataArray type="UInt8" Name="types" format="ascii">
9 9 9 9 9 9 9 9 9 
        </DataArray>
      </Cells>
      <PointData>
        <DataArray type="Float64" Name="u">
          2.00000000e+02 2.00163213e+02 2.01554620e+02 2.02423962e+02 2.22222222e+02 2.21421216e+02 2.22626595e+02 2.21869297e+02 2.22222222e+02 2.20601225e+02 2.21700730e+02 2.19313747e+02 2.00000000e+02 1.97877968e+02 1.99082118e+02 1.95130982e+02 
        </DataArray>
        <DataArray type="Float64" Name="v">
          0.00000000e+00 -1.61383053e+00 -2.78365877e+00 -4.83195479e+00 0.00000000e+00 -1.59609974e+00 -3.10934589e+00 -4.41676806e+00 0.00000000e+00 -1.57800762e+00 -2.90322533e+00 -4.48603288e+00 0.00000000e+00 -1.01135370e+00 -2.30766087e+00 -3.17567690e+00 
        </DataArray>
        <DataArray type="Float64" Name="p">
          -1.82422521e+03 -3.13597819e+03 -4.44773117e+03 -5.75948416e+03 -1.68754906e+03 -3.00045180e+03 -4.31335454e+03 -5.62625727e+03 -1.55087291e+03 -2.86492540e+03 -4.17897790e+03 -5.49303039e+03 -1.41419677e+03 -2.72939901e+03 -4.04460126e+03 -5.35980350e+03 
        </DataArray>
      </PointData>
    </Piece>
    <Piece NumberOfPoints="16" NumberOfCells="9">
      <Points>
        <DataArray type="Float64" NumberOfComponents="3" format="ascii">
          0.00000000e+00 5.00000000e+00 0.00000000e+00 
8.33333313e-01 5.00000000e+00 0.00000000e+00 
1.66666663e+00 5.00000000e+00 0.00000000e+00 
2.50000000e+00 5.00000000e+00 0.00000000e+00 
0.00000000e+00 5.33333349e+00 0.00000000e+00 
8.33333313e-01 5.33333349e+00 0.00000000e+00 
1.66666663e+00 5.33333349e+00 0.00000000e+00 
2.50000000e+00 5.33333349e+00 0.00000000e+00 
0.00000000e+00 5.66666651e+00 0.00000000e+00 
8.33333313e-01 5.66666651e+00 0.00000000e+00 
1.66666663e+00 5.66666651e+00 0.00000000e+00 
2.50000000e+00 5.66666651e+00 0.00000000e+00 
0.00000000e+00 6.00000000e+00 0.00000000e+00 
8.33333313e-01 6.00000000e+00 0.00000000e+00 
1.66666663e+00 6.00000000e+00 0.00000000e+00 
2.50000000e+00 6.00000000e+00 0.00000000e+00 

        </DataArray>
      </Points>
      <Cells>
        <DataArray type="Int32" Name="connectivity" format="ascii">
0 1 5 4
4 5 9 8
8 9 13 12
1 2 6 5
5 6 10 9
9 10 14 13
2 3 7 6
6 7 11 10
10 11 15 14

        </DataArray>
        <DataArray type="Int32" Name="offsets" format="ascii">
4 8 12 16 20 24 28 32 36 
        </DataArray>
        <DataArray type="UInt8" Name="types" format="ascii">
9 9 9 9 9 9 9 9 9 
        </DataArray>
      </Cells>
      <PointData>
        <DataArray type="Float64" Name="u">
          2.00000000e+02 1.97877968e+02 1.99082118e+02 1.95130982e+02 1.55555556e+02 1.53682285e+02 1.54618629e+02 1.50363003e+02 8.88888889e+01 8.77592566e+01 8.80782924e+01 8.47605132e+01 0.00000000e+00 0.00000000e+00 0.00000000e+00 0.00000000e+00 
        </DataArray>
        <DataArray type="Float64" Name="v">
          0.00000000e+00 -1.01135370e+00 -2.30766087e+00 -3.17567690e+00 0.00000000e+00 -3.46911336e-01 -1.12429077e+00 -1.63990656e+00 0.00000000e+00 -3.16138678e-01 -9.93107291e-01 -2.25533375e-01 0.00000000e+00 0.00000000e+00 0.00000000e+00 0.00000000e+00 
        </DataArray>
        <DataArray type="Float64" Name="p">
          -1.42204134e+03 -2.72059680e+03 -4.01915227e+03 -5.31770773e+03 -1.39460435e+03 -2.69434806e+03 -3.99409176e+03 -5.29383547e+03 -1.36716735e+03 -2.66809931e+03 -3.96903126e+03 -5.26996322e+03 -1.33973036e+03 -2.64185056e+03 -3.94397076e+03 -5.24609096e+03 
        </DataArray>
      </PointData>
    </Piece>
    <Piece NumberOfPoints="16" NumberOfCells="9">
      <Points>
        <DataArray type="Float64" NumberOfComponents="3" format="ascii">
          2.50000000e+00 0.00000000e+00 0.00000000e+00 
3.33333325e+00 0.00000000e+00 0.00000000e+00 
4.16666651e+00 0.00000000e+00 0.00000000e+00 
5.00000000e+00 0.00000000e+00 0.00000000e+00 
2.50000000e+00 3.33333343e-01 0.00000000e+00 
3.33333325e+00 3.33333343e-01 0.00000000e+00 
4.16666651e+00 3.33333343e-01 0.00000000e+00 
5.00000000e+00 3.33333343e-01 0.00000000e+00 
2.50000000e+00 6.66666687e-01 0.00000000e+00 
3.33333325e+00 6.66666687e-01 0.00000000e+00 
4.16666651e+00 6.66666687e-01 0.00000000e+00 
5.00000000e+00 6.66666687e-01 0.00000000e+00 
2.50000000e+00 1.00000000e+00 0.00000000e+00 
3.33333325e+00 1.00000000e+00 0.00000000e+00 
4.16666651e+00 1.00000000e+00 0.00000000e+00 
5.00000000e+00 1.00000000e+00 0.00000000e+00 

        </DataArray>
      </Points>
      <Cells>
        <DataArray type="Int32" Name="connectivity" format="ascii">
0 1 5 4
4 5 9 8
8 9 13 12
1 2 6 5
5 6 10 9
9 10 14 13
2 3 7 6
6 7 11 10
10 11 15 14

        </DataArray>
        <DataArray type="Int32" Name="offsets" format="ascii">
4 8 12 16 20 24 28 32 36 
        </DataArray>
        <DataArray type="UInt8" Name="types" format="ascii">
9 9 9 9 9 9 9 9 9 
        </DataArray>
      </Cells>
      <PointData>
        <DataArray type="Float64" Name="u">
          0.00000000e+00 0.00000000e+00 0.00000000e+00 0.00000000e+00 0.00000000e+00 -3.36613555e+00 -5.65483840e+00 -1.02866602e+01 0.00000000e+00 -5.80070666e+00 -9.99606441e+00 -1.71877431e+01 0.00000000e+00 -7.31084575e+00 -1.23965955e+01 -1.99918561e+01 
        </DataArray>
        <DataArray type="Float64" Name="v">
          0.00000000e+00 0.00000000e+00 0.00000000e+00 0.00000000e+00 0.00000000e+00 9.93941386e-01 1.07382819e+00 8.10629642e-01 0.00000000e+00 2.89223958e+00 2.93122977e+00 2.03760329e+00 0.00000000e+00 6.28748614e+00 6.03872803e+00 3.98738381e+00 
        </DataArray>
        <DataArray type="Float64" Name="p">
          -5.90900240e+03 -5.85257828e+03 -5.79615415e+03 -5.73973002e+03 -5.89568661e+03 -5.83893976e+03 -5.78219291e+03 -5.72544606e+03 -5.88237081e+03 -5.82530124e+03 -5.76823167e+03 -5.71116210e+03 -5.86905502e+03 -5.81166273e+03 -5.75427044e+03 -5.69687815e+03 
        </DataArray>
      </PointData>
    </Piece>
    <Piece NumberOfPoints="16" NumberOfCells="9">
      <Points>
        <DataArray type="Float64" NumberOfComponents="3" format="ascii">
          2.50000000e+00 1.00000000e+00 0.00000000e+00 
3.33333325e+00 1.00000000e+00 0.00000000e+00 
4.16666651e+00 1.00000000e+00 0.00000000e+00 
5.00000000e+00 1.00000000e+00 0.00000000e+00 
2.50000000e+00 1.33333337e+00 0.00000000e+00 
3.33333325e+00 1.33333337e+00 0.00000000e+00 
4.16666651e+00 1.33333337e+00 0.00000000e+00 
5.00000000e+00 1.33333337e+00 0.00000000e+00 
2.50000000e+00 1.66666663e+00 0.00000000e+00 
3.33333325e+00 1.66666663e+00 0.00000000e+00 
4.16666651e+00 1.66666663e+00 0.00000000e+00 
5.00000000e+00 1.66666663e+00 0.00000000e+00 
2.50000000e+00 2.00000000e+00 0.00000000e+00 
3.33333325e+00 2.00000000e+00 0.00000000e+00 
4.16666651e+00 2.00000000e+00 0.00000000e+00 
5.00000000e+00 2.00000000e+00 0.00000000e+00 

        </DataArray>
      </Points>
      <Cells>
        <DataArray type="Int32" Name="connectivity" format="ascii">
0 1 5 4
4 5 9 8
8 9 13 12
1 2 6 5
5 6 10 9
9 10 14 13
2 3 7 6
6 7 11 10
10 11 15 14

        </DataArray>
        <DataArray type="Int32" Name="offsets" format="ascii">
4 8 12 16 20 24 28 32 36 
        </DataArray>
        <DataArray type="UInt8" Name="types" format="ascii">
9 9 9 9 9 9 9 9 9 
        </DataArray>
      </Cells>
      <PointData>
        <DataArray type="Float64" Name="u">
          0.00000000e+00 -7.31084575e+00 -1.23965955e+01 -1.99918561e+01 0.00000000e+00 -7.88010418e+00 -1.24093493e+01 -1.85117276e+01 0.00000000e+00 -7.30056200e+00 -9.63529872e+00 -1.22047190e+01 0.00000000e+00 -5.01682605e+00 -3.39862563e+00 -4.42934583e-01 
        </DataArray>
        <DataArray type="Float64" Name="v">
          0.00000000e+00 6.28748614e+00 6.03872803e+00 3.98738381e+00 0.00000000e+00 1.02570867e+01 9.04469853e+00 5.21043584e+00 0.00000000e+00 1.32010911e+01 1.09198306e+01 5.18767687e+00 0.00000000e+00 1.60365959e+01 1.15203547e+01 3.32882666e+00 
        </DataArray>
        <DataArray type="Float64" Name="p">
          -5.85419736e+03 -5.80763241e+03 -5.76106745e+03 -5.71450250e+03 -5.94678032e+03 -5.89064446e+03 -5.83450861e+03 -5.77837275e+03 -6.03936328e+03 -5.97365652e+03 -5.90794977e+03 -5.84224301e+03 -6.13194624e+03 -6.05666858e+03 -5.98139092e+03 -5.90611326e+03 
        </DataArray>
      </PointData>
    </Piece>
    <Piece NumberOfPoints="16" NumberOfCells="9">
      <Points>
        <DataArray type="Float64" NumberOfComponents="3" format="ascii">
          2.50000000e+00 2.00000000e+00 0.00000000e+00 
3.33333325e+00 2.00000000e+00 0.00000000e+00 
4.16666651e+00 2.00000000e+00 0.00000000e+00 
5.00000000e+00 2.00000000e+00 0.00000000e+00 
2.50000000e+00 2.33333325e+00 0.00000000e+00 
3.33333325e+00 2.33333325e+00 0.00000000e+00 
4.16666651e+00 2.33333325e+00 0.00000000e+00 
5.00000000e+00 2.33333325e+00 0.00000000e+00 
2.50000000e+00 2.66666675e+00 0.00000000e+00 
3.33333325e+00 2.66666675e+00 0.00000000e+00 
4.16666651e+00 2.66666675e+00 0.00000000e+00 
5.00000000e+00 2.66666675e+00 0.00000000e+00 
2.50000000e+00 3.00000000e+00 0.00000000e+00 
3.33333325e+00 3.00000000e+00 0.00000000e+00 
4.16666651e+00 3.00000000e+00 0.00000000e+00 
5.00000000e+00 3.00000000e+00 0.00000000e+00 

        </DataArray>
      </Points>
      <Cells>
        <DataArray type="Int32" Name="connectivity" format="ascii">
0 1 5 4
4 5 9 8
8 9 13 12
1 2 6 5
5 6 10 9
9 10 14 13
2 3 7 6
6 7 11 10
10 11 15 14

        </DataArray>
        <DataArray type="Int32" Name="offsets" format="ascii">
4 8 12 16 20 24 28 32 36 
        </DataArray>
        <DataArray type="UInt8" Name="types" format="ascii">
9 9 9 9 9 9 9 9 9 
        </DataArray>
      </Cells>
      <PointData>
        <DataArray type="Float64" Name="u">
          0.00000000e+00 -5.01682605e+00 -3.39862563e+00 -4.42934583e-01 0.00000000e+00 2.42405345e-01 6.92726895e+00 1.91802042e+01 0.00000000e+00 1.47252744e+01 2.64313240e+01 4.64689949e+01 0.00000000e+00 5.22078112e+01 6.20478784e+01 8.40310584e+01 
        </DataArray>
        <DataArray type="Float64" Name="v">
          0.00000000e+00 1.60365959e+01 1.15203547e+01 3.32882666e+00 0.00000000e+00 1.70826745e+01 8.37795420e+00 -1.55017474e+00 0.00000000e+00 1.25778778e+01 4.01759033e+00 -5.59709050e+00 0.00000000e+00 -6.53933370e-01 -5.01304893e+00 -9.21366299e+00 
        </DataArray>
        <DataArray type="Float64" Name="p">
          -6.08661659e+03 -6.06761952e+03 -6.04862245e+03 -6.02962537e+03 -6.43191847e+03 -6.23009330e+03 -6.02826813e+03 -5.82644296e+03 -6.77722034e+03 -6.39256708e+03 -6.00791382e+03 -5.62326056e+03 -7.12252221e+03 -6.55504086e+03 -5.98755950e+03 -5.42007815e+03 
        </DataArray>
      </PointData>
    </Piece>
    <Piece NumberOfPoints="16" NumberOfCells="9">
      <Points>
        <DataArray type="Float64" NumberOfComponents="3" format="ascii">
          2.50000000e+00 3.00000000e+00 0.00000000e+00 
3.33333325e+00 3.00000000e+00 0.00000000e+00 
4.16666651e+00 3.00000000e+00 0.00000000e+00 
5.00000000e+00 3.00000000e+00 0.00000000e+00 
2.50000000e+00 3.33333325e+00 0.00000000e+00 
3.33333325e+00 3.33333325e+00 0.00000000e+00 
4.16666651e+00 3.33333325e+00 0.00000000e+00 
5.00000000e+00 3.33333325e+00 0.00000000e+00 
2.50000000e+00 3.66666675e+00 0.00000000e+00 
3.33333325e+00 3.66666675e+00 0.00000000e+00 
4.16666651e+00 3.66666675e+00 0.00000000e+00 
5.00000000e+00 3.66666675e+00 0.00000000e+00 
2.50000000e+00 4.00000000e+00 0.00000000e+00 
3.33333325e+00 4.00000000e+00 0.00000000e+00 
4.16666651e+00 4.00000000e+00 0.00000000e+00 
5.00000000e+00 4.00000000e+00 0.00000000e+00 

        </DataArray>
      </Points>
      <Cells>
        <DataArray type="Int32" Name="connectivity" format="ascii">
0 1 5 4
4 5 9 8
8 9 13 12
1 2 6 5
5 6 10 9
9 10 14 13
2 3 7 6
6 7 11 10
10 11 15 14

        </DataArray>
        <DataArray type="Int32" Name="offsets" format="ascii">
4 8 12 16 20 24 28 32 36 
        </DataArray>
        <DataArray type="UInt8" Name="types" format="ascii">
9 9 9 9 9 9 9 9 9 
        </DataArray>
      </Cells>
      <PointData>
        <DataArray type="Float64" Name="u">
          0.00000000e+00 5.22078112e+01 6.20478784e+01 8.40310584e+01 9.74287399e+01 1.04375855e+02 1.13621124e+02 1.23413474e+02 1.61228069e+02 1.59043576e+02 1.62980406e+02 1.63801399e+02 2.02423962e+02 1.96552492e+02 1.98178022e+02 1.92340159e+02 
        </DataArray>
        <DataArray type="Float64" Name="v">
          0.00000000e+00 -6.53933370e-01 -5.01304893e+00 -9.21366299e+00 -3.57806378e+00 -1.12954373e+01 -1.18517929e+01 -1.05838762e+01 -3.32657473e+00 -1.16938536e+01 -1.37436709e+01 -1.23193374e+01 -4.83195479e+00 -1.07365471e+01 -1.30046175e+01 -1.40077406e+01 
        </DataArray>
        <DataArray type="Float64" Name="p">
          -7.23500326e+03 -6.57531593e+03 -5.91562859e+03 -5.25594126e+03 -6.59551206e+03 -6.21972015e+03 -5.84392823e+03 -5.46813631e+03 -5.95602086e+03 -5.86412437e+03 -5.77222787e+03 -5.68033137e+03 -5.31652967e+03 -5.50852858e+03 -5.70052750e+03 -5.89252642e+03 
        </DataArray>
      </PointData>
    </Piece>
    <Piece NumberOfPoints="16" NumberOfCells="9">
      <Points>
        <DataArray type="Float64" NumberOfComponents="3" format="ascii">
          2.50000000e+00 4.00000000e+00 0.00000000e+00 
3.33333325e+00 4.00000000e+00 0.00000000e+00 
4.16666651e+00 4.00000000e+00 0.00000000e+00 
5.00000000e+00 4.00000000e+00 0.00000000e+00 
2.50000000e+00 4.33333349e+00 0.00000000e+00 
3.33333325e+00 4.33333349e+00 0.00000000e+00 
4.16666651e+00 4.33333349e+00 0.00000000e+00 
5.00000000e+00 4.33333349e+00 0.00000000e+00 
2.50000000e+00 4.66666651e+00 0.00000000e+00 
3.33333325e+00 4.66666651e+00 0.00000000e+00 
4.16666651e+00 4.66666651e+00 0.00000000e+00 
5.00000000e+00 4.66666651e+00 0.00000000e+00 
2.50000000e+00 5.00000000e+00 0.00000000e+00 
3.33333325e+00 5.00000000e+00 0.00000000e+00 
4.16666651e+00 5.00000000e+00 0.00000000e+00 
5.00000000e+00 5.00000000e+00 0.00000000e+00 

        </DataArray>
      </Points>
      <Cells>
        <DataArray type="Int32" Name="connectivity" format="ascii">
0 1 5 4
4 5 9 8
8 9 13 12
1 2 6 5
5 6 10 9
9 10 14 13
2 3 7 6
6 7 11 10
10 11 15 14

        </DataArray>
        <DataArray type="Int32" Name="offsets" format="ascii">
4 8 12 16 20 24 28 32 36 
        </DataArray>
        <DataArray type="UInt8" Name="types" format="ascii">
9 9 9 9 9 9 9 9 9 
        </DataArray>
      </Cells>
      <PointData>
        <DataArray type="Float64" Name="u">
          2.02423962e+02 1.96552492e+02 1.98178022e+02 1.92340159e+02 2.21869297e+02 2.14250884e+02 2.12590165e+02 2.04176518e+02 2.19313747e+02 2.10629297e+02 2.06924228e+02 1.96520414e+02 1.95130982e+02 1.86535268e+02 1.81958673e+02 1.71092671e+02 
        </DataArray>
        <DataArray type="Float64" Name="v">
          -4.83195479e+00 -1.07365471e+01 -1.30046175e+01 -1.40077406e+01 -4.41676806e+00 -7.21927703e+00 -1.04694769e+01 -1.32157167e+01 -4.48603288e+00 -6.17973279e+00 -7.94427553e+00 -1.06916889e+01 -3.17567690e+00 -1.56932857e+00 -3.99284737e+00 -7.96880335e+00 
        </DataArray>
        <DataArray type="Float64" Name="p">
          -5.12485433e+03 -5.38537272e+03 -5.64589111e+03 -5.90640949e+03 -4.92841103e+03 -5.15950459e+03 -5.39059815e+03 -5.62169171e+03 -4.73196773e+03 -4.93363646e+03 -5.13530519e+03 -5.33697392e+03 -4.53552443e+03 -4.70776833e+03 -4.88001223e+03 -5.05225614e+03 
        </DataArray>
      </PointData>
    </Piece>
    <Piece NumberOfPoints="16" NumberOfCells="9">
      <Points>
        <DataArray type="Float64" NumberOfComponents="3" format="ascii">
          2.50000000e+00 5.00000000e+00 0.00000000e+00 
3.33333325e+00 5.00000000e+00 0.00000000e+00 
4.16666651e+00 5.00000000e+00 0.00000000e+00 
5.00000000e+00 5.00000000e+00 0.00000000e+00 
2.50000000e+00 5.33333349e+00 0.00000000e+00 
3.33333325e+00 5.33333349e+00 0.00000000e+00 
4.16666651e+00 5.33333349e+00 0.00000000e+00 
5.00000000e+00 5.33333349e+00 0.00000000e+00 
2.50000000e+00 5.66666651e+00 0.00000000e+00 
3.33333325e+00 5.66666651e+00 0.00000000e+00 
4.16666651e+00 5.66666651e+00 0.00000000e+00 
5.00000000e+00 5.66666651e+00 0.00000000e+00 
2.50000000e+00 6.00000000e+00 0.00000000e+00 
3.33333325e+00 6.00000000e+00 0.00000000e+00 
4.16666651e+00 6.00000000e+00 0.00000000e+00 
5.00000000e+00 6.00000000e+00 0.00000000e+00 

        </DataArray>
      </Points>
      <Cells>
        <DataArray type="Int32" Name="connectivity" format="ascii">
0 1 5 4
4 5 9 8
8 9 13 12
1 2 6 5
5 6 10 9
9 10 14 13
2 3 7 6
6 7 11 10
10 11 15 14

        </DataArray>
        <DataArray type="Int32" Name="offsets" format="ascii">
4 8 12 16 20 24 28 32 36 
        </DataArray>
        <DataArray type="UInt8" Name="types" format="ascii">
9 9 9 9 9 9 9 9 9 
        </DataArray>
      </Cells>
      <PointData>
        <DataArray type="Float64" Name="u">
          1.95130982e+02 1.86535268e+02 1.81958673e+02 1.71092671e+02 1.50363003e+02 1.43417836e+02 1.39173144e+02 1.32275474e+02 8.47605132e+01 8.76156459e+01 8.77930797e+01 8.92526898e+01 0.00000000e+00 4.05080460e+01 4.23710670e+01 5.49890694e+01 
        </DataArray>
        <DataArray type="Float64" Name="v">
          -3.17567690e+00 -1.56932857e+00 -3.99284737e+00 -7.96880335e+00 -1.63990656e+00 2.20104809e+00 2.98030344e-01 -4.87682879e+00 -2.25533375e-01 2.20182580e+00 -7.97042128e-01 -4.11220974e+00 0.00000000e+00 -4.68702755e+00 -2.90075923e+00 -1.13352797e+00 
        </DataArray>
        <DataArray type="Float64" Name="p">
          -4.66859700e+03 -4.74643155e+03 -4.82426609e+03 -4.90210063e+03 -5.01611496e+03 -4.88122497e+03 -4.74633497e+03 -4.61144498e+03 -5.36363291e+03 -5.01601839e+03 -4.66840386e+03 -4.32078933e+03 -5.71115087e+03 -5.15081181e+03 -4.59047274e+03 -4.03013368e+03 
        </DataArray>
      </PointData>
    </Piece>
    <Piece NumberOfPoints="16" NumberOfCells="9">
      <Points>
        <DataArray type="Float64" NumberOfComponents="3" format="ascii">
          2.50000000e+00 6.00000000e+00 0.00000000e+00 
3.33333325e+00 6.00000000e+00 0.00000000e+00 
4.16666651e+00 6.00000000e+00 0.00000000e+00 
5.00000000e+00 6.00000000e+00 0.00000000e+00 
2.50000000e+00 6.33333349e+00 0.00000000e+00 
3.33333325e+00 6.33333349e+00 0.00000000e+00 
4.16666651e+00 6.33333349e+00 0.00000000e+00 
5.00000000e+00 6.33333349e+00 0.00000000e+00 
2.50000000e+00 6.66666651e+00 0.00000000e+00 
3.33333325e+00 6.66666651e+00 0.00000000e+00 
4.16666651e+00 6.66666651e+00 0.00000000e+00 
5.00000000e+00 6.66666651e+00 0.00000000e+00 
2.50000000e+00 7.00000000e+00 0.00000000e+00 
3.33333325e+00 7.00000000e+00 0.00000000e+00 
4.16666651e+00 7.00000000e+00 0.00000000e+00 
5.00000000e+00 7.00000000e+00 0.00000000e+00 

        </DataArray>
      </Points>
      <Cells>
        <DataArray type="Int32" Name="connectivity" format="ascii">
0 1 5 4
4 5 9 8
8 9 13 12
1 2 6 5
5 6 10 9
9 10 14 13
2 3 7 6
6 7 11 10
10 11 15 14

        </DataArray>
        <DataArray type="Int32" Name="offsets" format="ascii">
4 8 12 16 20 24 28 32 36 
        </DataArray>
        <DataArray type="UInt8" Name="types" format="ascii">
9 9 9 9 9 9 9 9 9 
        </DataArray>
      </Cells>
      <PointData>
        <DataArray type="Float64" Name="u">
          0.00000000e+00 4.05080460e+01 4.23710670e+01 5.49890694e+01 0.00000000e+00 9.75488408e+00 1.50483783e+01 2.53868290e+01 0.00000000e+00 -1.61644594e+00 7.23446790e-01 5.49851087e+00 0.00000000e+00 -5.49745321e+00 -6.45762361e+00 -7.55225790e+00 
        </DataArray>
        <DataArray type="Float64" Name="v">
          0.00000000e+00 -4.68702755e+00 -2.90075923e+00 -1.13352797e+00 0.00000000e+00 -1.38386663e+01 -7.87706228e+00 -1.72680408e+00 0.00000000e+00 -1.62365925e+01 -9.55227629e+00 -3.14370608e+00 0.00000000e+00 -1.43845029e+01 -1.05822449e+01 -5.03377731e+00 
        </DataArray>
        <DataArray type="Float64" Name="p">
          -5.67533777e+03 -5.20621174e+03 -4.73708571e+03 -4.26795968e+03 -5.37946844e+03 -5.05436353e+03 -4.72925862e+03 -4.40415370e+03 -5.08359912e+03 -4.90251532e+03 -4.72143153e+03 -4.54034773e+03 -4.78772979e+03 -4.75066711e+03 -4.71360444e+03 -4.67654176e+03 
        </DataArray>
      </PointData>
    </Piece>
    <Piece NumberOfPoints="16" NumberOfCells="9">
      <Points>
        <DataArray type="Float64" NumberOfComponents="3" format="ascii">
          2.50000000e+00 7.00000000e+00 0.00000000e+00 
3.33333325e+00 7.00000000e+00 0.00000000e+00 
4.16666651e+00 7.00000000e+00 0.00000000e+00 
5.00000000e+00 7.00000000e+00 0.00000000e+00 
2.50000000e+00 7.33333349e+00 0.00000000e+00 
3.33333325e+00 7.33333349e+00 0.00000000e+00 
4.16666651e+00 7.33333349e+00 0.00000000e+00 
5.00000000e+00 7.33333349e+00 0.00000000e+00 
2.50000000e+00 7.66666651e+00 0.00000000e+00 
3.33333325e+00 7.66666651e+00 0.00000000e+00 
4.16666651e+00 7.66666651e+00 0.00000000e+00 
5.00000000e+00 7.66666651e+00 0.00000000e+00 
2.50000000e+00 8.00000000e+00 0.00000000e+00 
3.33333325e+00 8.00000000e+00 0.00000000e+00 
4.16666651e+00 8.00000000e+00 0.00000000e+00 
5.00000000e+00 8.00000000e+00 0.00000000e+00 

        </DataArray>
      </Points>
      <Cells>
        <DataArray type="Int32" Name="connectivity" format="ascii">
0 1 5 4
4 5 9 8
8 9 13 12
1 2 6 5
5 6 10 9
9 10 14 13
2 3 7 6
6 7 11 10
10 11 15 14

        </DataArray>
        <DataArray type="Int32" Name="offsets" format="ascii">
4 8 12 16 20 24 28 32 36 
        </DataArray>
        <DataArray type="UInt8" Name="types" format="ascii">
9 9 9 9 9 9 9 9 9 
        </DataArray>
      </Cells>
      <PointData>
        <DataArray type="Float64" Name="u">
          0.00000000e+00 -5.49745321e+00 -6.45762361e+00 -7.55225790e+00 0.00000000e+00 -6.86103087e+00 -1.02594065e+01 -1.43636235e+01 0.00000000e+00 -6.85128560e+00 -1.13746233e+01 -1.71573297e+01 0.00000000e+00 -6.01379328e+00 -1.05091463e+01 -1.66727121e+01 
        </DataArray>
        <DataArray type="Float64" Name="v">
          0.00000000e+00 -1.43845029e+01 -1.05822449e+01 -5.03377731e+00 0.00000000e+00 -1.13118709e+01 -9.19763271e+00 -5.15958589e+00 0.00000000e+00 -8.54236036e+00 -7.28584535e+00 -4.42926481e+00 0.00000000e+00 -5.08104393e+00 -4.70884030e+00 -3.04923626e+00 
        </DataArray>
        <DataArray type="Float64" Name="p">
          -4.81716436e+03 -4.74115966e+03 -4.66515497e+03 -4.58915027e+03 -4.73577135e+03 -4.67550910e+03 -4.61524685e+03 -4.55498460e+03 -4.65437834e+03 -4.60985854e+03 -4.56533873e+03 -4.52081892e+03 -4.57298533e+03 -4.54420797e+03 -4.51543061e+03 -4.48665325e+03 
        </DataArray>
      </PointData>
    </Piece>
    <Piece NumberOfPoints="16" NumberOfCells="9">
      <Points>
        <DataArray type="Float64" NumberOfComponents="3" format="ascii">
          2.50000000e+00 8.00000000e+00 0.00000000e+00 
3.33333325e+00 8.00000000e+00 0.00000000e+00 
4.16666651e+00 8.00000000e+00 0.00000000e+00 
5.00000000e+00 8.00000000e+00 0.00000000e+00 
2.50000000e+00 8.33333302e+00 0.00000000e+00 
3.33333325e+00 8.33333302e+00 0.00000000e+00 
4.16666651e+00 8.33333302e+00 0.00000000e+00 
5.00000000e+00 8.33333302e+00 0.00000000e+00 
2.50000000e+00 8.66666698e+00 0.00000000e+00 
3.33333325e+00 8.66666698e+00 0.00000000e+00 
4.16666651e+00 8.66666698e+00 0.00000000e+00 
5.00000000e+00 8.66666698e+00 0.00000000e+00 
2.50000000e+00 9.00000000e+00 0.00000000e+00 
3.33333325e+00 9.00000000e+00 0.00000000e+00 
4.16666651e+00 9.00000000e+00 0.00000000e+00 
5.00000000e+00 9.00000000e+00 0.00000000e+00 

        </DataArray>
      </Points>
      <Cells>
        <DataArray type="Int32" Name="connectivity" format="ascii">
0 1 5 4
4 5 9 8
8 9 13 12
1 2 6 5
5 6 10 9
9 10 14 13
2 3 7 6
6 7 11 10
10 11 15 14

        </DataArray>
        <DataArray type="Int32" Name="offsets" format="ascii">
4 8 12 16 20 24 28 32 36 
        </DataArray>
        <DataArray type="UInt8" Name="types" format="ascii">
9 9 9 9 9 9 9 9 9 
        </DataArray>
      </Cells>
      <PointData>
        <DataArray type="Float64" Name="u">
          0.00000000e+00 -6.01379328e+00 -1.05091463e+01 -1.66727121e+01 0.00000000e+00 -4.59391532e+00 -8.10759336e+00 -1.35306859e+01 0.00000000e+00 -2.59772731e+00 -4.46870264e+00 -7.92748414e+00 0.00000000e+00 0.00000000e+00 0.00000000e+00 0.00000000e+00 
        </DataArray>
        <DataArray type="Float64" Name="v">
          0.00000000e+00 -5.08104393e+00 -4.70884030e+00 -3.04923626e+00 0.00000000e+00 -2.30122640e+00 -2.28989740e+00 -1.47114765e+00 0.00000000e+00 -7.63239893e-01 -8.20586711e-01 -5.22933403e-01 0.00000000e+00 0.00000000e+00 0.00000000e+00 0.00000000e+00 
        </DataArray>
        <DataArray type="Float64" Name="p">
          -4.58809015e+03 -4.55156378e+03 -4.51503741e+03 -4.47851104e+03 -4.60022395e+03 -4.56363506e+03 -4.52704617e+03 -4.49045728e+03 -4.61235775e+03 -4.57570634e+03 -4.53905493e+03 -4.50240352e+03 -4.62449154e+03 -4.58777761e+03 -4.55106368e+03 -4.51434975e+03 
        </DataArray>
      </PointData>
    </Piece>
    <Piece NumberOfPoints="16" NumberOfCells="9">
      <Points>
        <DataArray type="Float64" NumberOfComponents="3" format="ascii">
          5.00000000e+00 0.00000000e+00 0.00000000e+00 
5.83333349e+00 0.00000000e+00 0.00000000e+00 
6.66666651e+00 0.00000000e+00 0.00000000e+00 
7.50000000e+00 0.00000000e+00 0.00000000e+00 
5.00000000e+00 3.33333343e-01 0.00000000e+00 
5.83333349e+00 3.33333343e-01 0.00000000e+00 
6.66666651e+00 3.33333343e-01 0.00000000e+00 
7.50000000e+00 3.33333343e-01 0.00000000e+00 
5.00000000e+00 6.66666687e-01 0.00000000e+00 
5.83333349e+00 6.66666687e-01 0.00000000e+00 
6.66666651e+00 6.66666687e-01 0.00000000e+00 
7.50000000e+00 6.66666687e-01 0.00000000e+00 
5.00000000e+00 1.00000000e+00 0.00000000e+00 
5.83333349e+00 1.00000000e+00 0.00000000e+00 
6.66666651e+00 1.00000000e+00 0.00000000e+00 
7.50000000e+00 1.00000000e+00 0.00000000e+00 

        </DataArray>
      </Points>
      <Cells>
        <DataArray type="Int32" Name="connectivity" format="ascii">
0 1 5 4
4 5 9 8
8 9 13 12
1 2 6 5
5 6 10 9
9 10 14 13
2 3 7 6
6 7 11 10
10 11 15 14

        </DataArray>
        <DataArray type="Int32" Name="offsets" format="ascii">
4 8 12 16 20 24 28 32 36 
        </DataArray>
        <DataArray type="UInt8" Name="types" format="ascii">
9 9 9 9 9 9 9 9 9 
        </DataArray>
      </Cells>
      <PointData>
        <DataArray type="Float64" Name="u">