<?xml version="1.0"?>
<VTKFile type="UnstructuredGrid" version="0.1" byte_order="LittleEndian">
  <UnstructuredGrid>
    <Piece NumberOfPoints="16" NumberOfCells="9">
      <Points>
        <DataArray type="Float64" NumberOfComponents="3" format="ascii">
          0.00000000e+00 3.00000000e+00 0.00000000e+00 
8.33333313e-01 3.00000000e+00 0.00000000e+00 
1.66666663e+00 3.00000000e+00 0.00000000e+00 
2.50000000e+00 3.00000000e+00 0.00000000e+00 
0.00000000e+00 3.33333325e+00 0.00000000e+00 
8.33333313e-01 3.33333325e+00 0.00000000e+00 
1.66666663e+00 3.33333325e+00 0.00000000e+00 
2.50000000e+00 3.33333325e+00 0.00000000e+00 
0.00000000e+00 3.66666675e+00 0.00000000e+00 
8.33333313e-01 3.66666675e+00 0.00000000e+00 
1.66666663e+00 3.66666675e+00 0.00000000e+00 
2.50000000e+00 3.66666675e+00 0.00000000e+00 
0.00000000e+00 4.00000000e+00 0.00000000e+00 
8.33333313e-01 4.00000000e+00 0.00000000e+00 
1.66666663e+00 4.00000000e+00 0.00000000e+00 
2.50000000e+00 4.00000000e+00 0.00000000e+00 

        </DataArray>
      </Points>
      <Cells>
        <DataArray type="Int32" Name="connectivity" format="ascii">
0 1 5 4
4 5 9 8
8 9 13 12
1 2 6 5
5 6 10 9
9 10 14 13
2 3 7 6
6 7 11 10
10 11 15 14

        </DataArray>
        <DataArray type="Int32" Name="offsets" format="ascii">
4 8 12 16 20 24 28 32 36 
        </DataArray>
        <DataArray type="UInt8" Name="types" format="ascii">
9 9 9 9 9 9 9 9 9 
        </DataArray>
      </Cells>
      <PointData>
        <DataArray type="Float64" Name="u">
          0.00000000e+00 0.00000000e+00 0.00000000e+00 0.00000000e+00 8.88888889e+01 8.94738220e+01 8.95099548e+01 9.11321476e+01 1.55555556e+02 1.55367063e+02 1.56278893e+02 1.55829973e+02 2.00000000e+02 1.98966565e+02 2.00377370e+02 1.98727195e+02 
        </DataArray>
        <DataArray type="Float64" Name="v">
          0.00000000e+00 0.00000000e+00 0.00000000e+00 0.00000000e+00 0.00000000e+00 -2.44219046e-01 -4.43885593e-02 -1.74102463e+00 0.00000000e+00 -2.17981046e-01 -2.43486216e-01 -9.08735862e-01 0.00000000e+00 -3.07386288e-01 -2.46316355e-01 -8.50981150e-01 
        </DataArray>
        <DataArray type="Float64" Name="p">
          -1.36048026e+03 -2.79323839e+03 -4.22599652e+03 -5.65875465e+03 -1.37128492e+03 -2.79050180e+03 -4.20971867e+03 -5.62893555e+03 -1.38208958e+03 -2.78776521e+03 -4.19344083e+03 -5.59911645e+03 -1.39289424e+03 -2.78502861e+03 -4.17716298e+03 -5.56929735e+03 
        </DataArray>
      </PointData>
    </Piece>
    <Piece NumberOfPoints="16" NumberOfCells="9">
      <Points>
        <DataArray type="Float64" NumberOfComponents="3" format="ascii">
          0.00000000e+00 4.00000000e+00 0.00000000e+00 
8.33333313e-01 4.00000000e+00 0.00000000e+00 
1.66666663e+00 4.00000000e+00 0.00000000e+00 
2.50000000e+00 4.00000000e+00 0.00000000e+00 
0.00000000e+00 4.33333349e+00 0.00000000e+00 
8.33333313e-01 4.33333349e+00 0.00000000e+00 
1.66666663e+00 4.33333349e+00 0.00000000e+00 
2.50000000e+00 4.33333349e+00 0.00000000e+00 
0.00000000e+00 4.66666651e+00 0.00000000e+00 
8.33333313e-01 4.66666651e+00 0.00000000e+00 
1.66666663e+00 4.66666651e+00 0.00000000e+00 
2.50000000e+00 4.66666651e+00 0.00000000e+00 
0.00000000e+00 5.00000000e+00 0.00000000e+00 
8.33333313e-01 5.00000000e+00 0.00000000e+00 
1.66666663e+00 5.00000000e+00 0.00000000e+00 
2.50000000e+00 5.00000000e+00 0.00000000e+00 

        </DataArray>
      </Points>
      <Cells>
        <DataArray type="Int32" Name="connectivity" format="ascii">
0 1 5 4
4 5 9 8
8 9 13 12
1 2 6 5
5 6 10 9
9 10 14 13
2 3 7 6
6 7 11 10
10 11 15 14

        </DataArray>
        <DataArray type="Int32" Name="offsets" format="ascii">
4 8 12 16 20 24 28 32 36 
        </DataArray>
        <DataArray type="UInt8" Name="types" format="ascii">
9 9 9 9 9 9 9 9 9 
        </DataArray>
      </Cells>
      <PointData>
        <DataArray type="Float64" Name="u">
          2.00000000e+02 1.98966565e+02 2.00377370e+02 1.98727195e+02 2.22222222e+02 2.20933448e+02 2.22207530e+02 2.20553083e+02 2.22222222e+02 2.20933448e+02 2.22207530e+02 2.20553083e+02 2.00000000e+02 1.98966565e+02 2.00377370e+02 1.98727195e+02 
        </DataArray>
        <DataArray type="Float64" Name="v">
          0.00000000e+00 -3.07386288e-01 -2.46316355e-01 -8.50981150e-01 0.00000000e+00 -1.45553544e-02 -1.04812367e-01 3.52860199e-02 0.00000000e+00 1.45553544e-02 1.04812367e-01 -3.52860199e-02 0.00000000e+00 3.07386288e-01 2.46316355e-01 8.50981150e-01 
        </DataArray>
        <DataArray type="Float64" Name="p">
          -1.37134313e+03 -2.77063688e+03 -4.16993064e+03 -5.56922439e+03 -1.37134313e+03 -2.77063688e+03 -4.16993064e+03 -5.56922439e+03 -1.37134313e+03 -2.77063688e+03 -4.16993064e+03 -5.56922439e+03 -1.37134313e+03 -2.77063688e+03 -4.16993064e+03 -5.56922439e+03 
        </DataArray>
      </PointData>
    </Piece>
    <Piece NumberOfPoints="16" NumberOfCells="9">
      <Points>
        <DataArray type="Float64" NumberOfComponents="3" format="ascii">
          0.00000000e+00 5.00000000e+00 0.00000000e+00 
8.33333313e-01 5.00000000e+00 0.00000000e+00 
1.66666663e+00 5.00000000e+00 0.00000000e+00 
2.50000000e+00 5.00000000e+00 0.00000000e+00 
0.00000000e+00 5.33333349e+00 0.00000000e+00 
8.33333313e-01 5.33333349e+00 0.00000000e+00 
1.66666663e+00 5.33333349e+00 0.00000000e+00 
2.50000000e+00 5.33333349e+00 0.00000000e+00 
0.00000000e+00 5.66666651e+00 0.00000000e+00 
8.33333313e-01 5.66666651e+00 0.00000000e+00 
1.66666663e+00 5.66666651e+00 0.00000000e+00 
2.50000000e+00 5.66666651e+00 0.00000000e+00 
0.00000000e+00 6.00000000e+00 0.00000000e+00 
8.33333313e-01 6.00000000e+00 0.00000000e+00 
1.66666663e+00 6.00000000e+00 0.00000000e+00 
2.50000000e+00 6.00000000e+00 0.00000000e+00 

        </DataArray>
      </Points>
      <Cells>
        <DataArray type="Int32" Name="connectivity" format="ascii">
0 1 5 4
4 5 9 8
8 9 13 12
1 2 6 5
5 6 10 9
9 10 14 13
2 3 7 6
6 7 11 10
10 11 15 14

        </DataArray>
        <DataArray type="Int32" Name="offsets" format="ascii">
4 8 12 16 20 24 28 32 36 
        </DataArray>
        <DataArray type="UInt8" Name="types" format="ascii">
9 9 9 9 9 9 9 9 9 
        </DataArray>
      </Cells>
      <PointData>
        <DataArray type="Float64" Name="u">
          2.00000000e+02 1.98966565e+02 2.00377370e+02 1.98727195e+02 1.55555556e+02 1.55367063e+02 1.56278893e+02 1.55829973e+02 8.88888889e+01 8.94738220e+01 8.95099548e+01 9.11321476e+01 0.00000000e+00 0.00000000e+00 0.00000000e+00 0.00000000e+00 
        </DataArray>
        <DataArray type="Float64" Name="v">
          0.00000000e+00 3.07386288e-01 2.46316355e-01 8.50981150e-01 0.00000000e+00 2.17981046e-01 2.43486216e-01 9.08735862e-01 0.00000000e+00 2.44219046e-01 4.43885593e-02 1.74102463e+00 0.00000000e+00 0.00000000e+00 0.00000000e+00 0.00000000e+00 
        </DataArray>
        <DataArray type="Float64" Name="p">
          -1.39289424e+03 -2.78502861e+03 -4.17716298e+03 -5.56929735e+03 -1.38208958e+03 -2.78776521e+03 -4.19344083e+03 -5.59911645e+03 -1.37128492e+03 -2.79050180e+03 -4.20971867e+03 -5.62893555e+03 -1.36048026e+03 -2.79323839e+03 -4.22599652e+03 -5.65875465e+03 
        </DataArray>
      </PointData>
    </Piece>
    <Piece NumberOfPoints="16" NumberOfCells="9">
      <Points>
        <DataArray type="Float64" NumberOfComponents="3" format="ascii">
          2.50000000e+00 0.00000000e+00 0.00000000e+00 
3.33333325e+00 0.00000000e+00 0.00000000e+00 
4.16666651e+00 0.00000000e+00 0.00000000e+00 
5.00000000e+00 0.00000000e+00 0.00000000e+00 
2.50000000e+00 3.33333343e-01 0.00000000e+00 
3.33333325e+00 3.33333343e-01 0.00000000e+00 
4.16666651e+00 3.33333343e-01 0.00000000e+00 
5.00000000e+00 3.33333343e-01 0.00000000e+00 
2.50000000e+00 6.66666687e-01 0.00000000e+00 
3.33333325e+00 6.66666687e-01 0.00000000e+00 
4.16666651e+00 6.66666687e-01 0.00000000e+00 
5.00000000e+00 6.66666687e-01 0.00000000e+00 
2.50000000e+00 1.00000000e+00 0.00000000e+00 
3.33333325e+00 1.00000000e+00 0.00000000e+00 
4.16666651e+00 1.00000000e+00 0.00000000e+00 
5.00000000e+00 1.00000000e+00 0.00000000e+00 

        </DataArray>
      </Points>
      <Cells>
        <DataArray type="Int32" Name="connectivity" format="ascii">
0 1 5 4
4 5 9 8
8 9 13 12
1 2 6 5
5 6 10 9
9 10 14 13
2 3 7 6
6 7 11 10
10 11 15 14

        </DataArray>
        <DataArray type="Int32" Name="offsets" format="ascii">
4 8 12 16 20 24 28 32 36 
        </DataArray>
        <DataArray type="UInt8" Name="types" format="ascii">
9 9 9 9 9 9 9 9 9 
        </DataArray>
      </Cells>
      <PointData>
        <DataArray type="Float64" Name="u">
          0.00000000e+00 0.00000000e+00 0.00000000e+00 0.00000000e+00 0.00000000e+00 -3.07049462e+00 -5.14668079e+00 -9.25116457e+00 0.00000000e+00 -5.33155176e+00 -9.17709071e+00 -1.55218967e+01 0.00000000e+00 -6.82121617e+00 -1.15853390e+01 -1.85164962e+01 
        </DataArray>
        <DataArray type="Float64" Name="v">
          0.00000000e+00 0.00000000e+00 0.00000000e+00 0.00000000e+00 0.00000000e+00 8.98830039e-01 9.62983371e-01 6.54393819e-01 0.00000000e+00 2.65243555e+00 2.64490447e+00 1.74050764e+00 0.00000000e+00 5.79785009e+00 5.41224444e+00 3.50398841e+00 
        </DataArray>
        <DataArray type="Float64" Name="p">
          -5.22710317e+03 -5.17411379e+03 -5.12112442e+03 -5.06813504e+03 -5.21321093e+03 -5.16020450e+03 -5.10719807e+03 -5.05419164e+03 -5.19931869e+03 -5.14629521e+03 -5.09327172e+03 -5.04024824e+03 -5.18542646e+03 -5.13238592e+03 -5.07934538e+03 -5.02630483e+03 
        </DataArray>
      </PointData>
    </Piece>
    <Piece NumberOfPoints="16" NumberOfCells="9">
      <Points>
        <DataArray type="Float64" NumberOfComponents="3" format="ascii">
          2.50000000e+00 1.00000000e+00 0.00000000e+00 
3.33333325e+00 1.00000000e+00 0.00000000e+00 
4.16666651e+00 1.00000000e+00 0.00000000e+00 
5.00000000e+00 1.00000000e+00 0.00000000e+00 
2.50000000e+00 1.33333337e+00 0.00000000e+00 
3.33333325e+00 1.33333337e+00 0.00000000e+00 
4.16666651e+00 1.33333337e+00 0.00000000e+00 
5.00000000e+00 1.33333337e+00 0.00000000e+00 
2.50000000e+00 1.66666663e+00 0.00000000e+00 
3.33333325e+00 1.66666663e+00 0.00000000e+00 
4.16666651e+00 1.66666663e+00 0.00000000e+00 
5.00000000e+00 1.66666663e+00 0.00000000e+00 
2.50000000e+00 2.00000000e+00 0.00000000e+00 
3.33333325e+00 2.00000000e+00 0.00000000e+00 
4.16666651e+00 2.00000000e+00 0.00000000e+00 
5.00000000e+00 2.00000000e+00 0.00000000e+00 

        </DataArray>
      </Points>
      <Cells>
        <DataArray type="Int32" Name="connectivity" format="ascii">
0 1 5 4
4 5 9 8
8 9 13 12
1 2 6 5
5 6 10 9
9 10 14 13
2 3 7 6
6 7 11 10
10 11 15 14

        </DataArray>
        <DataArray type="Int32" Name="offsets" format="ascii">
4 8 12 16 20 24 28 32 36 
        </DataArray>
        <DataArray type="UInt8" Name="types" format="ascii">
9 9 9 9 9 9 9 9 9 
        </DataArray>
      </Cells>
      <PointData>
        <DataArray type="Float64" Name="u">
          0.00000000e+00 -6.82121617e+00 -1.15853390e+01 -1.85164962e+01 0.00000000e+00 -7.53942229e+00 -1.20171356e+01 -1.80447598e+01 0.00000000e+00 -7.24032761e+00 -1.00303774e+01 -1.34961487e+01 0.00000000e+00 -5.34104872e+00 -4.91095351e+00 -4.16498905e+00 
        </DataArray>
        <DataArray type="Float64" Name="v">
          0.00000000e+00 5.79785009e+00 5.41224444e+00 3.50398841e+00 0.00000000e+00 9.57695791e+00 8.21201906e+00 4.82064197e+00 0.00000000e+00 1.24763194e+01 1.01156077e+01 5.20657460e+00 0.00000000e+00 1.54663821e+01 1.11271131e+01 4.27547040e+00 
        </DataArray>
        <DataArray type="Float64" Name="p">
          -5.16938061e+03 -5.12605945e+03 -5.08273828e+03 -5.03941712e+03 -5.26572180e+03 -5.20626548e+03 -5.14680917e+03 -5.08735286e+03 -5.36206298e+03 -5.28647152e+03 -5.21088006e+03 -5.13528860e+03 -5.45840417e+03 -5.36667756e+03 -5.27495095e+03 -5.18322434e+03 
        </DataArray>
      </PointData>
    </Piece>
    <Piece NumberOfPoints="16" NumberOfCells="9">
      <Points>
        <DataArray type="Float64" NumberOfComponents="3" format="ascii">
          2.50000000e+00 2.00000000e+00 0.00000000e+00 
3.33333325e+00 2.00000000e+00 0.00000000e+00 
4.16666651e+00 2.00000000e+00 0.00000000e+00 
5.00000000e+00 2.00000000e+00 0.00000000e+00 
2.50000000e+00 2.33333325e+00 0.00000000e+00 
3.33333325e+00 2.33333325e+00 0.00000000e+00 
4.16666651e+00 2.33333325e+00 0.00000000e+00 
5.00000000e+00 2.33333325e+00 0.00000000e+00 
2.50000000e+00 2.66666675e+00 0.00000000e+00 
3.33333325e+00 2.66666675e+00 0.00000000e+00 
4.16666651e+00 2.66666675e+00 0.00000000e+00 
5.00000000e+00 2.66666675e+00 0.00000000e+00 
2.50000000e+00 3.00000000e+00 0.00000000e+00 
3.33333325e+00 3.00000000e+00 0.00000000e+00 
4.16666651e+00 3.00000000e+00 0.00000000e+00 
5.00000000e+00 3.00000000e+00 0.00000000e+00 

        </DataArray>
      </Points>
      <Cells>
        <DataArray type="Int32" Name="connectivity" format="ascii">
0 1 5 4
4 5 9 8
8 9 13 12
1 2 6 5
5 6 10 9
9 10 14 13
2 3 7 6
6 7 11 10
10 11 15 14

        </DataArray>
        <DataArray type="Int32" Name="offsets" format="ascii">
4 8 12 16 20 24 28 32 36 
        </DataArray>
        <DataArray type="UInt8" Name="types" format="ascii">
9 9 9 9 9 9 9 9 9 
        </DataArray>
      </Cells>
      <PointData>
        <DataArray type="Float64" Name="u">
          0.00000000e+00 -5.34104872e+00 -4.91095351e+00 -4.16498905e+00 0.00000000e+00 -5.84960025e-01 4.02962547e+00 1.22729119e+01 0.00000000e+00 1.26229566e+01 2.11024587e+01 3.59843748e+01 0.00000000e+00 4.68118929e+01 5.23912751e+01 6.95674217e+01 
        </DataArray>
        <DataArray type="Float64" Name="v">
          0.00000000e+00 1.54663821e+01 1.11271131e+01 4.27547040e+00 0.00000000e+00 1.68905209e+01 9.09618629e+00 1.04595616e+00 0.00000000e+00 1.33280333e+01 6.07944078e+00 -1.58573503e+00 0.00000000e+00 1.97719043e+00 -8.24120877e-01 -3.47296949e+00 
        </DataArray>
        <DataArray type="Float64" Name="p">
          -5.41999689e+03 -5.37743837e+03 -5.33487985e+03 -5.29232134e+03 -5.76525358e+03 -5.54844207e+03 -5.33163057e+03 -5.11481907e+03 -6.11051026e+03 -5.71944578e+03 -5.32838129e+03 -4.93731681e+03 -6.45576695e+03 -5.89044948e+03 -5.32513201e+03 -4.75981454e+03 
        </DataArray>
      </PointData>
    </Piece>
    <Piece NumberOfPoints="16" NumberOfCells="9">
      <Points>
        <DataArray type="Float64" NumberOfComponents="3" format="ascii">
          2.50000000e+00 3.00000000e+00 0.00000000e+00 
3.33333325e+00 3.00000000e+00 0.00000000e+00 
4.16666651e+00 3.00000000e+00 0.00000000e+00 
5.00000000e+00 3.00000000e+00 0.00000000e+00 
2.50000000e+00 3.33333325e+00 0.00000000e+00 
3.33333325e+00 3.33333325e+00 0.00000000e+00 
4.16666651e+00 3.33333325e+00 0.00000000e+00 
5.00000000e+00 3.33333325e+00 0.00000000e+00 
2.50000000e+00 3.66666675e+00 0.00000000e+00 
3.33333325e+00 3.66666675e+00 0.00000000e+00 
4.16666651e+00 3.66666675e+00 0.00000000e+00 
5.00000000e+00 3.66666675e+00 0.00000000e+00 
2.50000000e+00 4.00000000e+00 0.00000000e+00 
3.33333325e+00 4.00000000e+00 0.00000000e+00 
4.16666651e+00 4.00000000e+00 0.00000000e+00 
5.00000000e+00 4.00000000e+00 0.00000000e+00 

        </DataArray>
      </Points>
      <Cells>
        <DataArray type="Int32" Name="connectivity" format="ascii">
0 1 5 4
4 5 9 8
8 9 13 12
1 2 6 5
5 6 10 9
9 10 14 13
2 3 7 6
6 7 11 10
10 11 15 14

        </DataArray>
        <DataArray type="Int32" Name="offsets" format="ascii">
4 8 12 16 20 24 28 32 36 
        </DataArray>
        <DataArray type="UInt8" Name="types" format="ascii">
9 9 9 9 9 9 9 9 9 
        </DataArray>
      </Cells>
      <PointData>
        <DataArray type="Float64" Name="u">
          0.00000000e+00 4.68118929e+01 5.23912751e+01 6.95674217e+01 9.11321476e+01 9.61151662e+01 1.00702420e+02 1.06334433e+02 1.55829973e+02 1.51173790e+02 1.50995526e+02 1.48194152e+02 1.98727195e+02 1.91461050e+02 1.90018252e+02 1.82102421e+02 
        </DataArray>
        <DataArray type="Float64" Name="v">
          0.00000000e+00 1.97719043e+00 -8.24120877e-01 -3.47296949e+00 -1.74102463e+00 -6.76031446e+00 -5.21116544e+00 -2.51927944e+00 -9.08735862e-01 -7.07026192e+00 -6.84803792e+00 -3.08126642e+00 -8.50981150e-01 -4.61345129e+00 -4.34878778e+00 -2.53287910e+00 
        </DataArray>
        <DataArray type="Float64" Name="p">
          -6.51844313e+03 -5.86042736e+03 -5.20241159e+03 -4.54439582e+03 -6.01090037e+03 -5.61581376e+03 -5.22072714e+03 -4.82564053e+03 -5.50335761e+03 -5.37120015e+03 -5.23904270e+03 -5.10688524e+03 -4.99581485e+03 -5.12658655e+03 -5.25735825e+03 -5.38812995e+03 
        </DataArray>
      </PointData>
    </Piece>
    <Piece NumberOfPoints="16" NumberOfCells="9">
      <Points>
        <DataArray type="Float64" NumberOfComponents="3" format="ascii">
          2.50000000e+00 4.00000000e+00 0.00000000e+00 
3.33333325e+00 4.00000000e+00 0.00000000e+00 
4.16666651e+00 4.00000000e+00 0.00000000e+00 
5.00000000e+00 4.00000000e+00 0.00000000e+00 
2.50000000e+00 4.33333349e+00 0.00000000e+00 
3.33333325e+00 4.33333349e+00 0.00000000e+00 
4.16666651e+00 4.33333349e+00 0.00000000e+00 
5.00000000e+00 4.33333349e+00 0.00000000e+00 
2.50000000e+00 4.66666651e+00 0.00000000e+00 
3.33333325e+00 4.66666651e+00 0.00000000e+00 
4.16666651e+00 4.66666651e+00 0.00000000e+00 
5.00000000e+00 4.66666651e+00 0.00000000e+00 
2.50000000e+00 5.00000000e+00 0.00000000e+00 
3.33333325e+00 5.00000000e+00 0.00000000e+00 
4.16666651e+00 5.00000000e+00 0.00000000e+00 
5.00000000e+00 5.00000000e+00 0.00000000e+00 

        </DataArray>
      </Points>
      <Cells>
        <DataArray type="Int32" Name="connectivity" format="ascii">
0 1 5 4
4 5 9 8
8 9 13 12
1 2 6 5
5 6 10 9
9 10 14 13
2 3 7 6
6 7 11 10
10 11 15 14

        </DataArray>
        <DataArray type="Int32" Name="offsets" format="ascii">
4 8 12 16 20 24 28 32 36 
        </DataArray>
        <DataArray type="UInt8" Name="types" format="ascii">
9 9 9 9 9 9 9 9 9 
        </DataArray>
      </Cells>
      <PointData>
        <DataArray type="Float64" Name="u">
          1.98727195e+02 1.91461050e+02 1.90018252e+02 1.82102421e+02 2.20553083e+02 2.12305981e+02 2.09740841e+02 2.00869193e+02 2.20553083e+02 2.12305981e+02 2.09740841e+02 2.00869193e+02 1.98727195e+02 1.91461050e+02 1.90018252e+02 1.82102421e+02 
        </DataArray>
        <DataArray type="Float64" Name="v">
          -8.50981150e-01 -4.61345129e+00 -4.34878778e+00 -2.53287910e+00 3.52860199e-02 -5.73508927e-01 -1.29850069e+00 -1.19639032e+00 -3.52860199e-02 5.73508927e-01 1.29850069e+00 1.19639032e+00 8.50981150e-01 4.61345129e+00 4.34878778e+00 2.53287910e+00 
        </DataArray>
        <DataArray type="Float64" Name="p">
          -4.82530120e+03 -5.04596267e+03 -5.26662413e+03 -5.48728560e+03 -4.82530120e+03 -5.04596267e+03 -5.26662413e+03 -5.48728560e+03 -4.82530120e+03 -5.04596267e+03 -5.26662413e+03 -5.48728560e+03 -4.82530120e+03 -5.04596267e+03 -5.26662413e+03 -5.48728560e+03 
        </DataArray>
      </PointData>
    </Piece>
    <Piece NumberOfPoints="16" NumberOfCells="9">
      <Points>
        <DataArray type="Float64" NumberOfComponents="3" format="ascii">
          2.50000000e+00 5.00000000e+00 0.00000000e+00 
3.33333325e+00 5.00000000e+00 0.00000000e+00 
4.16666651e+00 5.00000000e+00 0.00000000e+00 
5.00000000e+00 5.00000000e+00 0.00000000e+00 
2.50000000e+00 5.33333349e+00 0.00000000e+00 
3.33333325e+00 5.33333349e+00 0.00000000e+00 
4.16666651e+00 5.33333349e+00 0.00000000e+00 
5.00000000e+00 5.33333349e+00 0.00000000e+00 
2.50000000e+00 5.66666651e+00 0.00000000e+00 
3.33333325e+00 5.66666651e+00 0.00000000e+00 
4.16666651e+00 5.66666651e+00 0.00000000e+00 
5.00000000e+00 5.66666651e+00 0.00000000e+00 
2.50000000e+00 6.00000000e+00 0.00000000e+00 
3.33333325e+00 6.00000000e+00 0.00000000e+00 
4.16666651e+00 6.00000000e+00 0.00000000e+00 
5.00000000e+00 6.00000000e+00 0.00000000e+00 

        </DataArray>
      </Points>
      <Cells>
        <DataArray type="Int32" Name="connectivity" format="ascii">
0 1 5 4
4 5 9 8
8 9 13 12
1 2 6 5
5 6 10 9
9 10 14 13
2 3 7 6
6 7 11 10
10 11 15 14

        </DataArray>
        <DataArray type="Int32" Name="offsets" format="ascii">
4 8 12 16 20 24 28 32 36 
        </DataArray>
        <DataArray type="UInt8" Name="types" format="ascii">
9 9 9 9 9 9 9 9 9 
        </DataArray>
      </Cells>
      <PointData>
        <DataArray type="Float64" Name="u">
          1.98727195e+02 1.91461050e+02 1.90018252e+02 1.82102421e+02 1.55829973e+02 1.51173790e+02 1.50995526e+02 1.48194152e+02 9.11321476e+01 9.61151662e+01 1.00702420e+02 1.06334433e+02 0.00000000e+00 4.68118929e+01 5.23912751e+01 6.95674217e+01 
        </DataArray>
        <DataArray type="Float64" Name="v">
          8.50981150e-01 4.61345129e+00 4.34878778e+00 2.53287910e+00 9.08735862e-01 7.07026192e+00 6.84803792e+00 3.08126642e+00 1.74102463e+00 6.76031446e+00 5.21116544e+00 2.51927944e+00 0.00000000e+00 -1.97719043e+00 8.24120877e-01 3.47296949e+00 
        </DataArray>
        <DataArray type="Float64" Name="p">
          -4.99581485e+03 -5.12658655e+03 -5.25735825e+03 -5.38812995e+03 -5.50335761e+03 -5.37120015e+03 -5.23904270e+03 -5.10688524e+03 -6.01090037e+03 -5.61581376e+03 -5.22072714e+03 -4.82564053e+03 -6.51844313e+03 -5.86042736e+03 -5.20241159e+03 -4.54439582e+03 
        </DataArray>
      </PointData>
    </Piece>
    <Piece NumberOfPoints="16" NumberOfCells="9">
      <Points>
        <DataArray type="Float64" NumberOfComponents="3" format="ascii">
          2.50000000e+00 6.00000000e+00 0.00000000e+00 
3.33333325e+00 6.00000000e+00 0.00000000e+00 
4.16666651e+00 6.00000000e+00 0.00000000e+00 
5.00000000e+00 6.00000000e+00 0.00000000e+00 
2.50000000e+00 6.33333349e+00 0.00000000e+00 
3.33333325e+00 6.33333349e+00 0.00000000e+00 
4.16666651e+00 6.33333349e+00 0.00000000e+00 
5.00000000e+00 6.33333349e+00 0.00000000e+00 
2.50000000e+00 6.66666651e+00 0.00000000e+00 
3.33333325e+00 6.66666651e+00 0.00000000e+00 
4.16666651e+00 6.66666651e+00 0.00000000e+00 
5.00000000e+00 6.66666651e+00 0.00000000e+00 
2.50000000e+00 7.00000000e+00 0.00000000e+00 
3.33333325e+00 7.00000000e+00 0.00000000e+00 
4.16666651e+00 7.00000000e+00 0.00000000e+00 
5.00000000e+00 7.00000000e+00 0.00000000e+00 

        </DataArray>
      </Points>
      <Cells>
        <DataArray type="Int32" Name="connectivity" format="ascii">
0 1 5 4
4 5 9 8
8 9 13 12
1 2 6 5
5 6 10 9
9 10 14 13
2 3 7 6
6 7 11 10
10 11 15 14

        </DataArray>
        <DataArray type="Int32" Name="offsets" format="ascii">
4 8 12 16 20 24 28 32 36 
        </DataArray>
        <DataArray type="UInt8" Name="types" format="ascii">
9 9 9 9 9 9 9 9 9 
        </DataArray>
      </Cells>
      <PointData>
        <DataArray type="Float64" Name="u">
          0.00000000e+00 4.68118929e+01 5.23912751e+01 6.95674217e+01 0.00000000e+00 1.26229566e+01 2.11024587e+01 3.59843748e+01 0.00000000e+00 -5.84960025e-01 4.02962547e+00 1.22729119e+01 0.00000000e+00 -5.34104872e+00 -4.91095351e+00 -4.16498905e+00 
        </DataArray>
        <DataArray type="Float64" Name="v">
          0.00000000e+00 -1.97719043e+00 8.24120877e-01 3.47296949e+00 0.00000000e+00 -1.33280333e+01 -6.07944078e+00 1.58573503e+00 0.00000000e+00 -1.68905209e+01 -9.09618629e+00 -1.04595616e+00 0.00000000e+00 -1.54663821e+01 -1.11271131e+01 -4.27547040e+00 
        </DataArray>
        <DataArray type="Float64" Name="p">
          -6.45576695e+03 -5.89044948e+03 -5.32513201e+03 -4.75981454e+03 -6.11051026e+03 -5.71944578e+03 -5.32838129e+03 -4.93731681e+03 -5.76525358e+03 -5.54844207e+03 -5.33163057e+03 -5.11481907e+03 -5.41999689e+03 -5.37743837e+03 -5.33487985e+03 -5.29232134e+03 
        </DataArray>
      </PointData>
    </Piece>
    <Piece NumberOfPoints="16" NumberOfCells="9">
      <Points>
        <DataArray type="Float64" NumberOfComponents="3" format="ascii">
          2.50000000e+00 7.00000000e+00 0.00000000e+00 
3.33333325e+00 7.00000000e+00 0.00000000e+00 
4.16666651e+00 7.00000000e+00 0.00000000e+00 
5.00000000e+00 7.00000000e+00 0.00000000e+00 
2.50000000e+00 7.33333349e+00 0.00000000e+00 
3.33333325e+00 7.33333349e+00 0.00000000e+00 
4.16666651e+00 7.33333349e+00 0.00000000e+00 
5.00000000e+00 7.33333349e+00 0.00000000e+00 
2.50000000e+00 7.66666651e+00 0.00000000e+00 
3.33333325e+00 7.66666651e+00 0.00000000e+00 
4.16666651e+00 7.66666651e+00 0.00000000e+00 
5.00000000e+00 7.66666651e+00 0.00000000e+00 
2.50000000e+00 8.00000000e+00 0.00000000e+00 
3.33333325e+00 8.00000000e+00 0.00000000e+00 
4.16666651e+00 8.00000000e+00 0.00000000e+00 
5.00000000e+00 8.00000000e+00 0.00000000e+00 

        </DataArray>
      </Points>
      <Cells>
        <DataArray type="Int32" Name="connectivity" format="ascii">
0 1 5 4
4 5 9 8
8 9 13 12
1 2 6 5
5 6 10 9
9 10 14 13
2 3 7 6
6 7 11 10
10 11 15 14

        </DataArray>
        <DataArray type="Int32" Name="offsets" format="ascii">
4 8 12 16 20 24 28 32 36 
        </DataArray>
        <DataArray type="UInt8" Name="types" format="ascii">
9 9 9 9 9 9 9 9 9 
        </DataArray>
      </Cells>
      <PointData>
        <DataArray type="Float64" Name="u">
          0.00000000e+00 -5.34104872e+00 -4.91095351e+00 -4.16498905e+00 0.00000000e+00 -7.24032761e+00 -1.00303774e+01 -1.34961487e+01 0.00000000e+00 -7.53942229e+00 -1.20171356e+01 -1.80447598e+01 0.00000000e+00 -6.82121617e+00 -1.15853390e+01 -1.85164962e+01 
        </DataArray>
        <DataArray type="Float64" Name="v">
          0.00000000e+00 -1.54663821e+01 -1.11271131e+01 -4.27547040e+00 0.00000000e+00 -1.24763194e+01 -1.01156077e+01 -5.20657460e+00 0.00000000e+00 -9.57695791e+00 -8.21201906e+00 -4.82064197e+00 0.00000000e+00 -5.79785009e+00 -5.41224444e+00 -3.50398841e+00 
        </DataArray>
        <DataArray type="Float64" Name="p">
          -5.45840417e+03 -5.36667756e+03 -5.27495095e+03 -5.18322434e+03 -5.36206298e+03 -5.28647152e+03 -5.21088006e+03 -5.13528860e+03 -5.26572180e+03 -5.20626548e+03 -5.14680917e+03 -5.08735286e+03 -5.16938061e+03 -5.12605945e+03 -5.08273828e+03 -5.03941712e+03 
        </DataArray>
      </PointData>
    </Piece>
    <Piece NumberOfPoints="16" NumberOfCells="9">
      <Points>
        <DataArray type="Float64" NumberOfComponents="3" format="ascii">
          2.50000000e+00 8.00000000e+00 0.00000000e+00 
3.33333325e+00 8.00000000e+00 0.00000000e+00 
4.16666651e+00 8.00000000e+00 0.00000000e+00 
5.00000000e+00 8.00000000e+00 0.00000000e+00 
2.50000000e+00 8.33333302e+00 0.00000000e+00 
3.33333325e+00 8.33333302e+00 0.00000000e+00 
4.16666651e+00 8.33333302e+00 0.00000000e+00 
5.00000000e+00 8.33333302e+00 0.00000000e+00 
2.50000000e+00 8.66666698e+00 0.00000000e+00 
3.33333325e+00 8.66666698e+00 0.00000000e+00 
4.16666651e+00 8.66666698e+00 0.00000000e+00 
5.00000000e+00 8.66666698e+00 0.00000000e+00 
2.50000000e+00 9.00000000e+00 0.00000000e+00 
3.33333325e+00 9.00000000e+00 0.00000000e+00 
4.16666651e+00 9.00000000e+00 0.00000000e+00 
5.00000000e+00 9.00000000e+00 0.00000000e+00 

        </DataArray>
      </Points>
      <Cells>
        <DataArray type="Int32" Name="connectivity" format="ascii">
0 1 5 4
4 5 9 8
8 9 13 12
1 2 6 5
5 6 10 9
9 10 14 13
2 3 7 6
6 7 11 10
10 11 15 14

        </DataArray>
        <DataArray type="Int32" Name="offsets" format="ascii">
4 8 12 16 20 24 28 32 36 
        </DataArray>
        <DataArray type="UInt8" Name="types" format="ascii">
9 9 9 9 9 9 9 9 9 
        </DataArray>
      </Cells>
      <PointData>
        <DataArray type="Float64" Name="u">
          0.00000000e+00 -6.82121617e+00 -1.15853390e+01 -1.85164962e+01 0.00000000e+00 -5.33155176e+00 -9.17709071e+00 -1.55218967e+01 0.00000000e+00 -3.07049462e+00 -5.14668079e+00 -9.25116457e+00 0.00000000e+00 0.00000000e+00 0.00000000e+00 0.00000000e+00 
        </DataArray>
        <DataArray type="Float64" Name="v">
          0.00000000e+00 -5.79785009e+00 -5.41224444e+00 -3.50398841e+00 0.00000000e+00 -2.65243555e+00 -2.64490447e+00 -1.74050764e+00 0.00000000e+00 -8.98830039e-01 -9.62983371e-01 -6.54393819e-01 0.00000000e+00 0.00000000e+00 0.00000000e+00 0.00000000e+00 
        </DataArray>
        <DataArray type="Float64" Name="p">
          -5.18542646e+03 -5.13238592e+03 -5.07934538e+03 -5.02630483e+03 -5.19931869e+03 -5.14629521e+03 -5.09327172e+03 -5.04024824e+03 -5.21321093e+03 -5.16020450e+03 -5.10719807e+03 -5.05419164e+03 -5.22710317e+03 -5.17411379e+03 -5.12112442e+03 -5.06813504e+03 
        </DataArray>
      </PointData>
    </Piece>
    <Piece NumberOfPoints="16" NumberOfCells="9">
      <Points>
        <DataArray type="Float64" NumberOfComponents="3" format="ascii">
          5.00000000e+00 0.00000000e+00 0.00000000e+00 
5.83333349e+00 0.00000000e+00 0.00000000e+00 
6.66666651e+00 0.00000000e+00 0.00000000e+00 
7.50000000e+00 0.00000000e+00 0.00000000e+00 
5.00000000e+00 3.33333343e-01 0.00000000e+00 
5.83333349e+00 3.33333343e-01 0.00000000e+00 
6.66666651e+00 3.33333343e-01 0.00000000e+00 
7.50000000e+00 3.33333343e-01 0.00000000e+00 
5.00000000e+00 6.66666687e-01 0.00000000e+00 
5.83333349e+00 6.66666687e-01 0.00000000e+00 
6.66666651e+00 6.66666687e-01 0.00000000e+00 
7.50000000e+00 6.66666687e-01 0.00000000e+00 
5.00000000e+00 1.00000000e+00 0.00000000e+00 
5.83333349e+00 1.00000000e+00 0.00000000e+00 
6.66666651e+00 1.00000000e+00 0.00000000e+00 
7.50000000e+00 1.00000000e+00 0.00000000e+00 

        </DataArray>
      </Points>
      <Cells>
        <DataArray type="Int32" Name="connectivity" format="ascii">
0 1 5 4
4 5 9 8
8 9 13 12
1 2 6 5
5 6 10 9
9 10 14 13
2 3 7 6
6 7 11 10
10 11 15 14

        </DataArray>
        <DataArray type="Int32" Name="offsets" format="ascii">
4 8 12 16 20 24 28 32 36 
        </DataArray>
        <DataArray type="UInt8" Name="types" format="ascii">
9 9 9 9 9 9 9 9 9 
        </DataArray>
      </Cells>
      <PointData>
        <DataArray type="Float64" Name="u">