<?xml version="1.0"?>
<VTKFile type="UnstructuredGrid" version="0.1" byte_order="LittleEndian">
  <UnstructuredGrid>
    <Piece NumberOfPoints="16" NumberOfCells="9">
      <Points>
        <DataArray type="Float64" NumberOfComponents="3" format="ascii">
          0.00000000e+00 3.00000000e+00 0.00000000e+00 
8.33333313e-01 3.00000000e+00 0.00000000e+00 
1.66666663e+00 3.00000000e+00 0.00000000e+00 
2.50000000e+00 3.00000000e+00 0.00000000e+00 
0.00000000e+00 3.33333325e+00 0.00000000e+00 
8.33333313e-01 3.33333325e+00 0.00000000e+00 
1.66666663e+00 3.33333325e+00 0.00000000e+00 
2.50000000e+00 3.33333325e+00 0.00000000e+00 
0.00000000e+00 3.66666675e+00 0.00000000e+00 
8.33333313e-01 3.66666675e+00 0.00000000e+00 
1.66666663e+00 3.66666675e+00 0.00000000e+00 
2.50000000e+00 3.66666675e+00 0.00000000e+00 
0.00000000e+00 4.00000000e+00 0.00000000e+00 
8.33333313e-01 4.00000000e+00 0.00000000e+00 
1.66666663e+00 4.00000000e+00 0.00000000e+00 
2.50000000e+00 4.00000000e+00 0.00000000e+00 

        </DataArray>
      </Points>
      <Cells>
        <DataArray type="Int32" Name="connectivity" format="ascii">
0 1 5 4
4 5 9 8
8 9 13 12
1 2 6 5
5 6 10 9
9 10 14 13
2 3 7 6
6 7 11 10
10 11 15 14

        </DataArray>
        <DataArray type="Int32" Name="offsets" format="ascii">
4 8 12 16 20 24 28 32 36 
        </DataArray>
        <DataArray type="UInt8" Name="types" format="ascii">
9 9 9 9 9 9 9 9 9 
        </DataArray>
      </Cells>
      <PointData>
        <DataArray type="Float64" Name="u">
          0.00000000e+00 0.00000000e+00 0.00000000e+00 0.00000000e+00 8.88888889e+01 8.94640351e+01 8.94863509e+01 9.10074595e+01 1.55555556e+02 1.55376379e+02 1.56241954e+02 1.55816233e+02 2.00000000e+02 1.99009248e+02 2.00347490e+02 1.98797370e+02 
        </DataArray>
        <DataArray type="Float64" Name="v">
          0.00000000e+00 0.00000000e+00 0.00000000e+00 0.00000000e+00 0.00000000e+00 -2.42031326e-01 -3.61906695e-02 -1.64213896e+00 0.00000000e+00 -2.08206047e-01 -2.35194885e-01 -8.20977351e-01 0.00000000e+00 -2.97053869e-01 -2.27714450e-01 -7.99740770e-01 
        </DataArray>
        <DataArray type="Float64" Name="p">
          -1.66446877e+03 -3.03278672e+03 -4.40110466e+03 -5.76942261e+03 -1.67392839e+03 -3.03011385e+03 -4.38629930e+03 -5.74248476e+03 -1.68338800e+03 -3.02744097e+03 -4.37149395e+03 -5.71554692e+03 -1.69284762e+03 -3.02476810e+03 -4.35668859e+03 -5.68860907e+03 
        </DataArray>
      </PointData>
    </Piece>
    <Piece NumberOfPoints="16" NumberOfCells="9">
      <Points>
        <DataArray type="Float64" NumberOfComponents="3" format="ascii">
          0.00000000e+00 4.00000000e+00 0.00000000e+00 
8.33333313e-01 4.00000000e+00 0.00000000e+00 
1.66666663e+00 4.00000000e+00 0.00000000e+00 
2.50000000e+00 4.00000000e+00 0.00000000e+00 
0.00000000e+00 4.33333349e+00 0.00000000e+00 
8.33333313e-01 4.33333349e+00 0.00000000e+00 
1.66666663e+00 4.33333349e+00 0.00000000e+00 
2.50000000e+00 4.33333349e+00 0.00000000e+00 
0.00000000e+00 4.66666651e+00 0.00000000e+00 
8.33333313e-01 4.66666651e+00 0.00000000e+00 
1.66666663e+00 4.66666651e+00 0.00000000e+00 
2.50000000e+00 4.66666651e+00 0.00000000e+00 
0.00000000e+00 5.00000000e+00 0.00000000e+00 
8.33333313e-01 5.00000000e+00 0.00000000e+00 
1.66666663e+00 5.00000000e+00 0.00000000e+00 
2.50000000e+00 5.00000000e+00 0.00000000e+00 

        </DataArray>
      </Points>
      <Cells>
        <DataArray type="Int32" Name="connectivity" format="ascii">
0 1 5 4
4 5 9 8
8 9 13 12
1 2 6 5
5 6 10 9
9 10 14 13
2 3 7 6
6 7 11 10
10 11 15 14

        </DataArray>
        <DataArray type="Int32" Name="offsets" format="ascii">
4 8 12 16 20 24 28 32 36 
        </DataArray>
        <DataArray type="UInt8" Name="types" format="ascii">
9 9 9 9 9 9 9 9 9 
        </DataArray>
      </Cells>
      <PointData>
        <DataArray type="Float64" Name="u">
          2.00000000e+02 1.99009248e+02 2.00347490e+02 1.98797370e+02 2.22222222e+02 2.20996034e+02 2.22197422e+02 2.20644729e+02 2.22222222e+02 2.20996034e+02 2.22197422e+02 2.20644729e+02 2.00000000e+02 1.99009248e+02 2.00347490e+02 1.98797369e+02 
        </DataArray>
        <DataArray type="Float64" Name="v">
          0.00000000e+00 -2.97053869e-01 -2.27714450e-01 -7.99740770e-01 0.00000000e+00 -1.18460078e-02 -9.95708650e-02 3.92151384e-02 0.00000000e+00 1.18457509e-02 9.95703764e-02 -3.92158676e-02 0.00000000e+00 2.97053657e-01 2.27714035e-01 7.99740112e-01 
        </DataArray>
        <DataArray type="Float64" Name="p">
          -1.67203976e+03 -3.01129376e+03 -4.35054776e+03 -5.68980176e+03 -1.67203975e+03 -3.01129375e+03 -4.35054775e+03 -5.68980174e+03 -1.67203974e+03 -3.01129373e+03 -4.35054773e+03 -5.68980173e+03 -1.67203972e+03 -3.01129372e+03 -4.35054772e+03 -5.68980172e+03 
        </DataArray>
      </PointData>
    </Piece>
    <Piece NumberOfPoints="16" NumberOfCells="9">
      <Points>
        <DataArray type="Float64" NumberOfComponents="3" format="ascii">
          0.00000000e+00 5.00000000e+00 0.00000000e+00 
8.33333313e-01 5.00000000e+00 0.00000000e+00 
1.66666663e+00 5.00000000e+00 0.00000000e+00 
2.50000000e+00 5.00000000e+00 0.00000000e+00 
0.00000000e+00 5.33333349e+00 0.00000000e+00 
8.33333313e-01 5.33333349e+00 0.00000000e+00 
1.66666663e+00 5.33333349e+00 0.00000000e+00 
2.50000000e+00 5.33333349e+00 0.00000000e+00 
0.00000000e+00 5.66666651e+00 0.00000000e+00 
8.33333313e-01 5.66666651e+00 0.00000000e+00 
1.66666663e+00 5.66666651e+00 0.00000000e+00 
2.50000000e+00 5.66666651e+00 0.00000000e+00 
0.00000000e+00 6.00000000e+00 0.00000000e+00 
8.33333313e-01 6.00000000e+00 0.00000000e+00 
1.66666663e+00 6.00000000e+00 0.00000000e+00 
2.50000000e+00 6.00000000e+00 0.00000000e+00 

        </DataArray>
      </Points>
      <Cells>
        <DataArray type="Int32" Name="connectivity" format="ascii">
0 1 5 4
4 5 9 8
8 9 13 12
1 2 6 5
5 6 10 9
9 10 14 13
2 3 7 6
6 7 11 10
10 11 15 14

        </DataArray>
        <DataArray type="Int32" Name="offsets" format="ascii">
4 8 12 16 20 24 28 32 36 
        </DataArray>
        <DataArray type="UInt8" Name="types" format="ascii">
9 9 9 9 9 9 9 9 9 
        </DataArray>
      </Cells>
      <PointData>
        <DataArray type="Float64" Name="u">
          2.00000000e+02 1.99009248e+02 2.00347490e+02 1.98797369e+02 1.55555556e+02 1.55376378e+02 1.56241954e+02 1.55816232e+02 8.88888889e+01 8.94640348e+01 8.94863507e+01 9.10074585e+01 0.00000000e+00 0.00000000e+00 0.00000000e+00 0.00000000e+00 
        </DataArray>
        <DataArray type="Float64" Name="v">
          0.00000000e+00 2.97053657e-01 2.27714035e-01 7.99740112e-01 0.00000000e+00 2.08205958e-01 2.35194659e-01 8.20976938e-01 0.00000000e+00 2.42031236e-01 3.61904991e-02 1.64213864e+00 0.00000000e+00 0.00000000e+00 0.00000000e+00 0.00000000e+00 
        </DataArray>
        <DataArray type="Float64" Name="p">
          -1.69284758e+03 -3.02476807e+03 -4.35668855e+03 -5.68860903e+03 -1.68338796e+03 -3.02744093e+03 -4.37149390e+03 -5.71554687e+03 -1.67392835e+03 -3.03011380e+03 -4.38629925e+03 -5.74248470e+03 -1.66446873e+03 -3.03278667e+03 -4.40110460e+03 -5.76942254e+03 
        </DataArray>
      </PointData>
    </Piece>
    <Piece NumberOfPoints="16" NumberOfCells="9">
      <Points>
        <DataArray type="Float64" NumberOfComponents="3" format="ascii">
          2.50000000e+00 0.00000000e+00 0.00000000e+00 
3.33333325e+00 0.00000000e+00 0.00000000e+00 
4.16666651e+00 0.00000000e+00 0.00000000e+00 
5.00000000e+00 0.00000000e+00 0.00000000e+00 
2.50000000e+00 3.33333343e-01 0.00000000e+00 
3.33333325e+00 3.33333343e-01 0.00000000e+00 
4.16666651e+00 3.33333343e-01 0.00000000e+00 
5.00000000e+00 3.33333343e-01 0.00000000e+00 
2.50000000e+00 6.66666687e-01 0.00000000e+00 
3.33333325e+00 6.66666687e-01 0.00000000e+00 
4.16666651e+00 6.66666687e-01 0.00000000e+00 
5.00000000e+00 6.66666687e-01 0.00000000e+00 
2.50000000e+00 1.00000000e+00 0.00000000e+00 
3.33333325e+00 1.00000000e+00 0.00000000e+00 
4.16666651e+00 1.00000000e+00 0.00000000e+00 
5.00000000e+00 1.00000000e+00 0.00000000e+00 

        </DataArray>
      </Points>
      <Cells>
        <DataArray type="Int32" Name="connectivity" format="ascii">
0 1 5 4
4 5 9 8
8 9 13 12
1 2 6 5
5 6 10 9
9 10 14 13
2 3 7 6
6 7 11 10
10 11 15 14

        </DataArray>
        <DataArray type="Int32" Name="offsets" format="ascii">
4 8 12 16 20 24 28 32 36 
        </DataArray>
        <DataArray type="UInt8" Name="types" format="ascii">
9 9 9 9 9 9 9 9 9 
        </DataArray>
      </Cells>
      <PointData>
        <DataArray type="Float64" Name="u">
          0.00000000e+00 0.00000000e+00 0.00000000e+00 0.00000000e+00 0.00000000e+00 -2.97679724e+00 -5.04329760e+00 -9.06446170e+00 0.00000000e+00 -5.19353673e+00 -9.02920246e+00 -1.52828363e+01 0.00000000e+00 -6.67347377e+00 -1.14519475e+01 -1.83210664e+01 
        </DataArray>
        <DataArray type="Float64" Name="v">
          0.00000000e+00 0.00000000e+00 0.00000000e+00 0.00000000e+00 0.00000000e+00 8.75274483e-01 9.40156297e-01 6.55420348e-01 0.00000000e+00 2.59202033e+00 2.59518721e+00 1.74663660e+00 0.00000000e+00 5.67883560e+00 5.32937055e+00 3.52056567e+00 
        </DataArray>
        <DataArray type="Float64" Name="p">
          -5.36679115e+03 -5.31961751e+03 -5.27244386e+03 -5.22527021e+03 -5.35380969e+03 -5.30646145e+03 -5.25911321e+03 -5.21176496e+03 -5.34082823e+03 -5.29330539e+03 -5.24578255e+03 -5.19825972e+03 -5.32784676e+03 -5.28014933e+03 -5.23245190e+03 -5.18475447e+03 
        </DataArray>
      </PointData>
    </Piece>
    <Piece NumberOfPoints="16" NumberOfCells="9">
      <Points>
        <DataArray type="Float64" NumberOfComponents="3" format="ascii">
          2.50000000e+00 1.00000000e+00 0.00000000e+00 
3.33333325e+00 1.00000000e+00 0.00000000e+00 
4.16666651e+00 1.00000000e+00 0.00000000e+00 
5.00000000e+00 1.00000000e+00 0.00000000e+00 
2.50000000e+00 1.33333337e+00 0.00000000e+00 
3.33333325e+00 1.33333337e+00 0.00000000e+00 
4.16666651e+00 1.33333337e+00 0.00000000e+00 
5.00000000e+00 1.33333337e+00 0.00000000e+00 
2.50000000e+00 1.66666663e+00 0.00000000e+00 
3.33333325e+00 1.66666663e+00 0.00000000e+00 
4.16666651e+00 1.66666663e+00 0.00000000e+00 
5.00000000e+00 1.66666663e+00 0.00000000e+00 
2.50000000e+00 2.00000000e+00 0.00000000e+00 
3.33333325e+00 2.00000000e+00 0.00000000e+00 
4.16666651e+00 2.00000000e+00 0.00000000e+00 
5.00000000e+00 2.00000000e+00 0.00000000e+00 

        </DataArray>
      </Points>
      <Cells>
        <DataArray type="Int32" Name="connectivity" format="ascii">
0 1 5 4
4 5 9 8
8 9 13 12
1 2 6 5
5 6 10 9
9 10 14 13
2 3 7 6
6 7 11 10
10 11 15 14

        </DataArray>
        <DataArray type="Int32" Name="offsets" format="ascii">
4 8 12 16 20 24 28 32 36 
        </DataArray>
        <DataArray type="UInt8" Name="types" format="ascii">
9 9 9 9 9 9 9 9 9 
        </DataArray>
      </Cells>
      <PointData>
        <DataArray type="Float64" Name="u">
          0.00000000e+00 -6.67347377e+00 -1.14519475e+01 -1.83210664e+01 0.00000000e+00 -7.40658367e+00 -1.19462372e+01 -1.79721802e+01 0.00000000e+00 -7.15156910e+00 -1.00664290e+01 -1.36112400e+01 0.00000000e+00 -5.34002790e+00 -5.09622496e+00 -4.51622102e+00 
        </DataArray>
        <DataArray type="Float64" Name="v">
          0.00000000e+00 5.67883560e+00 5.32937055e+00 3.52056567e+00 0.00000000e+00 9.40763003e+00 8.12035960e+00 4.86974799e+00 0.00000000e+00 1.22831978e+01 1.00346196e+01 5.30394920e+00 0.00000000e+00 1.52762475e+01 1.11010569e+01 4.44828985e+00 
        </DataArray>
        <DataArray type="Float64" Name="p">
          -5.31259252e+03 -5.27392249e+03 -5.23525247e+03 -5.19658245e+03 -5.40273624e+03 -5.34955654e+03 -5.29637683e+03 -5.24319713e+03 -5.49287996e+03 -5.42519058e+03 -5.35750120e+03 -5.28981182e+03 -5.58302368e+03 -5.50082462e+03 -5.41862556e+03 -5.33642650e+03 
        </DataArray>
      </PointData>
    </Piece>
    <Piece NumberOfPoints="16" NumberOfCells="9">
      <Points>
        <DataArray type="Float64" NumberOfComponents="3" format="ascii">
          2.50000000e+00 2.00000000e+00 0.00000000e+00 
3.33333325e+00 2.00000000e+00 0.00000000e+00 
4.16666651e+00 2.00000000e+00 0.00000000e+00 
5.00000000e+00 2.00000000e+00 0.00000000e+00 
2.50000000e+00 2.33333325e+00 0.00000000e+00 
3.33333325e+00 2.33333325e+00 0.00000000e+00 
4.16666651e+00 2.33333325e+00 0.00000000e+00 
5.00000000e+00 2.33333325e+00 0.00000000e+00 
2.50000000e+00 2.66666675e+00 0.00000000e+00 
3.33333325e+00 2.66666675e+00 0.00000000e+00 
4.16666651e+00 2.66666675e+00 0.00000000e+00 
5.00000000e+00 2.66666675e+00 0.00000000e+00 
2.50000000e+00 3.00000000e+00 0.00000000e+00 
3.33333325e+00 3.00000000e+00 0.00000000e+00 
4.16666651e+00 3.00000000e+00 0.00000000e+00 
5.00000000e+00 3.00000000e+00 0.00000000e+00 

        </DataArray>
      </Points>
      <Cells>
        <DataArray type="Int32" Name="connectivity" format="ascii">
0 1 5 4
4 5 9 8
8 9 13 12
1 2 6 5
5 6 10 9
9 10 14 13
2 3 7 6
6 7 11 10
10 11 15 14

        </DataArray>
        <DataArray type="Int32" Name="offsets" format="ascii">
4 8 12 16 20 24 28 32 36 
        </DataArray>
        <DataArray type="UInt8" Name="types" format="ascii">
9 9 9 9 9 9 9 9 9 
        </DataArray>
      </Cells>
      <PointData>
        <DataArray type="Float64" Name="u">
          0.00000000e+00 -5.34002790e+00 -5.09622496e+00 -4.51622102e+00 0.00000000e+00 -7.40639175e-01 3.64549238e+00 1.16848974e+01 0.00000000e+00 1.22207116e+01 2.04980038e+01 3.52252157e+01 0.00000000e+00 4.62897279e+01 5.17917000e+01 6.88314989e+01 
        </DataArray>
        <DataArray type="Float64" Name="v">
          0.00000000e+00 1.52762475e+01 1.11010569e+01 4.44828985e+00 0.00000000e+00 1.67557176e+01 9.14365644e+00 1.28531203e+00 0.00000000e+00 1.33413739e+01 6.25068537e+00 -1.33163844e+00 0.00000000e+00 2.19884733e+00 -5.94424650e-01 -3.25131163e+00 
        </DataArray>
        <DataArray type="Float64" Name="p">
          -5.54632346e+03 -5.51150041e+03 -5.47667736e+03 -5.44185431e+03 -5.87258298e+03 -5.67300805e+03 -5.47343312e+03 -5.27385819e+03 -6.19884251e+03 -5.83451570e+03 -5.47018889e+03 -5.10586208e+03 -6.52510203e+03 -5.99602334e+03 -5.46694465e+03 -4.93786596e+03 
        </DataArray>
      </PointData>
    </Piece>
    <Piece NumberOfPoints="16" NumberOfCells="9">
      <Points>
        <DataArray type="Float64" NumberOfComponents="3" format="ascii">
          2.50000000e+00 3.00000000e+00 0.00000000e+00 
3.33333325e+00 3.00000000e+00 0.00000000e+00 
4.16666651e+00 3.00000000e+00 0.00000000e+00 
5.00000000e+00 3.00000000e+00 0.00000000e+00 
2.50000000e+00 3.33333325e+00 0.00000000e+00 
3.33333325e+00 3.33333325e+00 0.00000000e+00 
4.16666651e+00 3.33333325e+00 0.00000000e+00 
5.00000000e+00 3.33333325e+00 0.00000000e+00 
2.50000000e+00 3.66666675e+00 0.00000000e+00 
3.33333325e+00 3.66666675e+00 0.00000000e+00 
4.16666651e+00 3.66666675e+00 0.00000000e+00 
5.00000000e+00 3.66666675e+00 0.00000000e+00 
2.50000000e+00 4.00000000e+00 0.00000000e+00 
3.33333325e+00 4.00000000e+00 0.00000000e+00 
4.16666651e+00 4.00000000e+00 0.00000000e+00 
5.00000000e+00 4.00000000e+00 0.00000000e+00 

        </DataArray>
      </Points>
      <Cells>
        <DataArray type="Int32" Name="connectivity" format="ascii">
0 1 5 4
4 5 9 8
8 9 13 12
1 2 6 5
5 6 10 9
9 10 14 13
2 3 7 6
6 7 11 10
10 11 15 14

        </DataArray>
        <DataArray type="Int32" Name="offsets" format="ascii">
4 8 12 16 20 24 28 32 36 
        </DataArray>
        <DataArray type="UInt8" Name="types" format="ascii">
9 9 9 9 9 9 9 9 9 
        </DataArray>
      </Cells>
      <PointData>
        <DataArray type="Float64" Name="u">
          0.00000000e+00 4.62897279e+01 5.17917000e+01 6.88314989e+01 9.10074595e+01 9.59263686e+01 1.00445385e+02 1.06023958e+02 1.55816233e+02 1.51331656e+02 1.51201874e+02 1.48519374e+02 1.98797370e+02 1.91799609e+02 1.90498227e+02 1.82916903e+02 
        </DataArray>
        <DataArray type="Float64" Name="v">
          0.00000000e+00 2.19884733e+00 -5.94424650e-01 -3.25131163e+00 -1.64213896e+00 -6.47816511e+00 -4.92897887e+00 -2.27292480e+00 -8.20977351e-01 -6.76338261e+00 -6.57765813e+00 -2.89208546e+00 -7.99740770e-01 -4.41784565e+00 -4.14527937e+00 -2.39290672e+00 
        </DataArray>
        <DataArray type="Float64" Name="p">
          -6.59246026e+03 -5.96920192e+03 -5.34594357e+03 -4.72268523e+03 -6.10701596e+03 -5.73690325e+03 -5.36679054e+03 -4.99667783e+03 -5.62157166e+03 -5.50460458e+03 -5.38763750e+03 -5.27067042e+03 -5.13612737e+03 -5.27230592e+03 -5.40848447e+03 -5.54466302e+03 
        </DataArray>
      </PointData>
    </Piece>
    <Piece NumberOfPoints="16" NumberOfCells="9">
      <Points>
        <DataArray type="Float64" NumberOfComponents="3" format="ascii">
          2.50000000e+00 4.00000000e+00 0.00000000e+00 
3.33333325e+00 4.00000000e+00 0.00000000e+00 
4.16666651e+00 4.00000000e+00 0.00000000e+00 
5.00000000e+00 4.00000000e+00 0.00000000e+00 
2.50000000e+00 4.33333349e+00 0.00000000e+00 
3.33333325e+00 4.33333349e+00 0.00000000e+00 
4.16666651e+00 4.33333349e+00 0.00000000e+00 
5.00000000e+00 4.33333349e+00 0.00000000e+00 
2.50000000e+00 4.66666651e+00 0.00000000e+00 
3.33333325e+00 4.66666651e+00 0.00000000e+00 
4.16666651e+00 4.66666651e+00 0.00000000e+00 
5.00000000e+00 4.66666651e+00 0.00000000e+00 
2.50000000e+00 5.00000000e+00 0.00000000e+00 
3.33333325e+00 5.00000000e+00 0.00000000e+00 
4.16666651e+00 5.00000000e+00 0.00000000e+00 
5.00000000e+00 5.00000000e+00 0.00000000e+00 

        </DataArray>
      </Points>
      <Cells>
        <DataArray type="Int32" Name="connectivity" format="ascii">
0 1 5 4
4 5 9 8
8 9 13 12
1 2 6 5
5 6 10 9
9 10 14 13
2 3 7 6
6 7 11 10
10 11 15 14

        </DataArray>
        <DataArray type="Int32" Name="offsets" format="ascii">
4 8 12 16 20 24 28 32 36 
        </DataArray>
        <DataArray type="UInt8" Name="types" format="ascii">
9 9 9 9 9 9 9 9 9 
        </DataArray>
      </Cells>
      <PointData>
        <DataArray type="Float64" Name="u">
          1.98797370e+02 1.91799609e+02 1.90498227e+02 1.82916903e+02 2.20644729e+02 2.12738818e+02 2.10334261e+02 2.01869870e+02 2.20644729e+02 2.12738818e+02 2.10334261e+02 2.01869870e+02 1.98797369e+02 1.91799608e+02 1.90498225e+02 1.82916901e+02 
        </DataArray>
        <DataArray type="Float64" Name="v">
          -7.99740770e-01 -4.41784565e+00 -4.14527937e+00 -2.39290672e+00 3.92151384e-02 -5.17901943e-01 -1.22261533e+00 -1.14551286e+00 -3.92158676e-02 5.17900833e-01 1.22261379e+00 1.14551086e+00 7.99740112e-01 4.41784463e+00 4.14527794e+00 2.39290487e+00 
        </DataArray>
        <DataArray type="Float64" Name="p">
          -4.97269589e+03 -5.19512527e+03 -5.41755465e+03 -5.63998403e+03 -4.97269588e+03 -5.19512525e+03 -5.41755463e+03 -5.63998400e+03 -4.97269586e+03 -5.19512523e+03 -5.41755460e+03 -5.63998398e+03 -4.97269584e+03 -5.19512521e+03 -5.41755458e+03 -5.63998395e+03 
        </DataArray>
      </PointData>
    </Piece>
    <Piece NumberOfPoints="16" NumberOfCells="9">
      <Points>
        <DataArray type="Float64" NumberOfComponents="3" format="ascii">
          2.50000000e+00 5.00000000e+00 0.00000000e+00 
3.33333325e+00 5.00000000e+00 0.00000000e+00 
4.16666651e+00 5.00000000e+00 0.00000000e+00 
5.00000000e+00 5.00000000e+00 0.00000000e+00 
2.50000000e+00 5.33333349e+00 0.00000000e+00 
3.33333325e+00 5.33333349e+00 0.00000000e+00 
4.16666651e+00 5.33333349e+00 0.00000000e+00 
5.00000000e+00 5.33333349e+00 0.00000000e+00 
2.50000000e+00 5.66666651e+00 0.00000000e+00 
3.33333325e+00 5.66666651e+00 0.00000000e+00 
4.16666651e+00 5.66666651e+00 0.00000000e+00 
5.00000000e+00 5.66666651e+00 0.00000000e+00 
2.50000000e+00 6.00000000e+00 0.00000000e+00 
3.33333325e+00 6.00000000e+00 0.00000000e+00 
4.16666651e+00 6.00000000e+00 0.00000000e+00 
5.00000000e+00 6.00000000e+00 0.00000000e+00 

        </DataArray>
      </Points>
      <Cells>
        <DataArray type="Int32" Name="connectivity" format="ascii">
0 1 5 4
4 5 9 8
8 9 13 12
1 2 6 5
5 6 10 9
9 10 14 13
2 3 7 6
6 7 11 10
10 11 15 14

        </DataArray>
        <DataArray type="Int32" Name="offsets" format="ascii">
4 8 12 16 20 24 28 32 36 
        </DataArray>
        <DataArray type="UInt8" Name="types" format="ascii">
9 9 9 9 9 9 9 9 9 
        </DataArray>
      </Cells>
      <PointData>
        <DataArray type="Float64" Name="u">
          1.98797369e+02 1.91799608e+02 1.90498225e+02 1.82916901e+02 1.55816232e+02 1.51331655e+02 1.51201872e+02 1.48519371e+02 9.10074585e+01 9.59263673e+01 1.00445383e+02 1.06023955e+02 0.00000000e+00 4.62897269e+01 5.17916984e+01 6.88314965e+01 
        </DataArray>
        <DataArray type="Float64" Name="v">
          7.99740112e-01 4.41784463e+00 4.14527794e+00 2.39290487e+00 8.20976938e-01 6.76338181e+00 6.57765699e+00 2.89208400e+00 1.64213864e+00 6.47816433e+00 4.92897779e+00 2.27292353e+00 0.00000000e+00 -2.19884781e+00 5.94423951e-01 3.25131073e+00 
        </DataArray>
        <DataArray type="Float64" Name="p">
          -5.13612731e+03 -5.27230585e+03 -5.40848439e+03 -5.54466294e+03 -5.62157158e+03 -5.50460450e+03 -5.38763742e+03 -5.27067033e+03 -6.10701586e+03 -5.73690315e+03 -5.36679044e+03 -4.99667773e+03 -6.59246013e+03 -5.96920179e+03 -5.34594346e+03 -4.72268513e+03 
        </DataArray>
      </PointData>
    </Piece>
    <Piece NumberOfPoints="16" NumberOfCells="9">
      <Points>
        <DataArray type="Float64" NumberOfComponents="3" format="ascii">
          2.50000000e+00 6.00000000e+00 0.00000000e+00 
3.33333325e+00 6.00000000e+00 0.00000000e+00 
4.16666651e+00 6.00000000e+00 0.00000000e+00 
5.00000000e+00 6.00000000e+00 0.00000000e+00 
2.50000000e+00 6.33333349e+00 0.00000000e+00 
3.33333325e+00 6.33333349e+00 0.00000000e+00 
4.16666651e+00 6.33333349e+00 0.00000000e+00 
5.00000000e+00 6.33333349e+00 0.00000000e+00 
2.50000000e+00 6.66666651e+00 0.00000000e+00 
3.33333325e+00 6.66666651e+00 0.00000000e+00 
4.16666651e+00 6.66666651e+00 0.00000000e+00 
5.00000000e+00 6.66666651e+00 0.00000000e+00 
2.50000000e+00 7.00000000e+00 0.00000000e+00 
3.33333325e+00 7.00000000e+00 0.00000000e+00 
4.16666651e+00 7.00000000e+00 0.00000000e+00 
5.00000000e+00 7.00000000e+00 0.00000000e+00 

        </DataArray>
      </Points>
      <Cells>
        <DataArray type="Int32" Name="connectivity" format="ascii">
0 1 5 4
4 5 9 8
8 9 13 12
1 2 6 5
5 6 10 9
9 10 14 13
2 3 7 6
6 7 11 10
10 11 15 14

        </DataArray>
        <DataArray type="Int32" Name="offsets" format="ascii">
4 8 12 16 20 24 28 32 36 
        </DataArray>
        <DataArray type="UInt8" Name="types" format="ascii">
9 9 9 9 9 9 9 9 9 
        </DataArray>
      </Cells>
      <PointData>
        <DataArray type="Float64" Name="u">
          0.00000000e+00 4.62897269e+01 5.17916984e+01 6.88314965e+01 0.00000000e+00 1.22207112e+01 2.04980028e+01 3.52252139e+01 0.00000000e+00 -7.40639340e-01 3.64549183e+00 1.16848962e+01 0.00000000e+00 -5.34002795e+00 -5.09622524e+00 -4.51622167e+00 
        </DataArray>
        <DataArray type="Float64" Name="v">
          0.00000000e+00 -2.19884781e+00 5.94423951e-01 3.25131073e+00 0.00000000e+00 -1.33413740e+01 -6.25068574e+00 1.33163778e+00 0.00000000e+00 -1.67557176e+01 -9.14365658e+00 -1.28531246e+00 0.00000000e+00 -1.52762474e+01 -1.11010569e+01 -4.44829003e+00 
        </DataArray>
        <DataArray type="Float64" Name="p">
          -6.52510190e+03 -5.99602322e+03 -5.46694454e+03 -4.93786586e+03 -6.19884239e+03 -5.83451558e+03 -5.47018878e+03 -5.10586197e+03 -5.87258287e+03 -5.67300794e+03 -5.47343301e+03 -5.27385808e+03 -5.54632335e+03 -5.51150030e+03 -5.47667725e+03 -5.44185420e+03 
        </DataArray>
      </PointData>
    </Piece>
    <Piece NumberOfPoints="16" NumberOfCells="9">
      <Points>
        <DataArray type="Float64" NumberOfComponents="3" format="ascii">
          2.50000000e+00 7.00000000e+00 0.00000000e+00 
3.33333325e+00 7.00000000e+00 0.00000000e+00 
4.16666651e+00 7.00000000e+00 0.00000000e+00 
5.00000000e+00 7.00000000e+00 0.00000000e+00 
2.50000000e+00 7.33333349e+00 0.00000000e+00 
3.33333325e+00 7.33333349e+00 0.00000000e+00 
4.16666651e+00 7.33333349e+00 0.00000000e+00 
5.00000000e+00 7.33333349e+00 0.00000000e+00 
2.50000000e+00 7.66666651e+00 0.00000000e+00 
3.33333325e+00 7.66666651e+00 0.00000000e+00 
4.16666651e+00 7.66666651e+00 0.00000000e+00 
5.00000000e+00 7.66666651e+00 0.00000000e+00 
2.50000000e+00 8.00000000e+00 0.00000000e+00 
3.33333325e+00 8.00000000e+00 0.00000000e+00 
4.16666651e+00 8.00000000e+00 0.00000000e+00 
5.00000000e+00 8.00000000e+00 0.00000000e+00 

        </DataArray>
      </Points>
      <Cells>
        <DataArray type="Int32" Name="connectivity" format="ascii">
0 1 5 4
4 5 9 8
8 9 13 12
1 2 6 5
5 6 10 9
9 10 14 13
2 3 7 6
6 7 11 10
10 11 15 14

        </DataArray>
        <DataArray type="Int32" Name="offsets" format="ascii">
4 8 12 16 20 24 28 32 36 
        </DataArray>
        <DataArray type="UInt8" Name="types" format="ascii">
9 9 9 9 9 9 9 9 9 
        </DataArray>
      </Cells>
      <PointData>
        <DataArray type="Float64" Name="u">
          0.00000000e+00 -5.34002795e+00 -5.09622524e+00 -4.51622167e+00 0.00000000e+00 -7.15156906e+00 -1.00664291e+01 -1.36112402e+01 0.00000000e+00 -7.40658358e+00 -1.19462371e+01 -1.79721801e+01 0.00000000e+00 -6.67347366e+00 -1.14519474e+01 -1.83210662e+01 
        </DataArray>
        <DataArray type="Float64" Name="v">
          0.00000000e+00 -1.52762474e+01 -1.11010569e+01 -4.44829003e+00 0.00000000e+00 -1.22831977e+01 -1.00346195e+01 -5.30394923e+00 0.00000000e+00 -9.40762989e+00 -8.12035947e+00 -4.86974795e+00 0.00000000e+00 -5.67883550e+00 -5.32937045e+00 -3.52056561e+00 
        </DataArray>
        <DataArray type="Float64" Name="p">
          -5.58302357e+03 -5.50082451e+03 -5.41862545e+03 -5.33642639e+03 -5.49287985e+03 -5.42519047e+03 -5.35750109e+03 -5.28981171e+03 -5.40273613e+03 -5.34955643e+03 -5.29637673e+03 -5.24319703e+03 -5.31259241e+03 -5.27392239e+03 -5.23525236e+03 -5.19658234e+03 
        </DataArray>
      </PointData>
    </Piece>
    <Piece NumberOfPoints="16" NumberOfCells="9">
      <Points>
        <DataArray type="Float64" NumberOfComponents="3" format="ascii">
          2.50000000e+00 8.00000000e+00 0.00000000e+00 
3.33333325e+00 8.00000000e+00 0.00000000e+00 
4.16666651e+00 8.00000000e+00 0.00000000e+00 
5.00000000e+00 8.00000000e+00 0.00000000e+00 
2.50000000e+00 8.33333302e+00 0.00000000e+00 
3.33333325e+00 8.33333302e+00 0.00000000e+00 
4.16666651e+00 8.33333302e+00 0.00000000e+00 
5.00000000e+00 8.33333302e+00 0.00000000e+00 
2.50000000e+00 8.66666698e+00 0.00000000e+00 
3.33333325e+00 8.66666698e+00 0.00000000e+00 
4.16666651e+00 8.66666698e+00 0.00000000e+00 
5.00000000e+00 8.66666698e+00 0.00000000e+00 
2.50000000e+00 9.00000000e+00 0.00000000e+00 
3.33333325e+00 9.00000000e+00 0.00000000e+00 
4.16666651e+00 9.00000000e+00 0.00000000e+00 
5.00000000e+00 9.00000000e+00 0.00000000e+00 

        </DataArray>
      </Points>
      <Cells>
        <DataArray type="Int32" Name="connectivity" format="ascii">
0 1 5 4
4 5 9 8
8 9 13 12
1 2 6 5
5 6 10 9
9 10 14 13
2 3 7 6
6 7 11 10
10 11 15 14

        </DataArray>
        <DataArray type="Int32" Name="offsets" format="ascii">
4 8 12 16 20 24 28 32 36 
        </DataArray>
        <DataArray type="UInt8" Name="types" format="ascii">
9 9 9 9 9 9 9 9 9 
        </DataArray>
      </Cells>
      <PointData>
        <DataArray type="Float64" Name="u">
          0.00000000e+00 -6.67347366e+00 -1.14519474e+01 -1.83210662e+01 0.00000000e+00 -5.19353662e+00 -9.02920231e+00 -1.52828360e+01 0.00000000e+00 -2.97679718e+00 -5.04329751e+00 -9.06446151e+00 0.00000000e+00 0.00000000e+00 0.00000000e+00 0.00000000e+00 
        </DataArray>
        <DataArray type="Float64" Name="v">
          0.00000000e+00 -5.67883550e+00 -5.32937045e+00 -3.52056561e+00 0.00000000e+00 -2.59202028e+00 -2.59518716e+00 -1.74663656e+00 0.00000000e+00 -8.75274463e-01 -9.40156277e-01 -6.55420326e-01 0.00000000e+00 0.00000000e+00 0.00000000e+00 0.00000000e+00 
        </DataArray>
        <DataArray type="Float64" Name="p">
          -5.32784665e+03 -5.28014922e+03 -5.23245179e+03 -5.18475436e+03 -5.34082812e+03 -5.29330528e+03 -5.24578245e+03 -5.19825961e+03 -5.35380958e+03 -5.30646134e+03 -5.25911310e+03 -5.21176486e+03 -5.36679104e+03 -5.31961740e+03 -5.27244375e+03 -5.22527011e+03 
        </DataArray>
      </PointData>
    </Piece>
    <Piece NumberOfPoints="16" NumberOfCells="9">
      <Points>
        <DataArray type="Float64" NumberOfComponents="3" format="ascii">
          5.00000000e+00 0.00000000e+00 0.00000000e+00 
5.83333349e+00 0.00000000e+00 0.00000000e+00 
6.66666651e+00 0.00000000e+00 0.00000000e+00 
7.50000000e+00 0.00000000e+00 0.00000000e+00 
5.00000000e+00 3.33333343e-01 0.00000000e+00 
5.83333349e+00 3.33333343e-01 0.00000000e+00 
6.66666651e+00 3.33333343e-01 0.00000000e+00 
7.50000000e+00 3.33333343e-01 0.00000000e+00 
5.00000000e+00 6.66666687e-01 0.00000000e+00 
5.83333349e+00 6.66666687e-01 0.00000000e+00 
6.66666651e+00 6.66666687e-01 0.00000000e+00 
7.50000000e+00 6.66666687e-01 0.00000000e+00 
5.00000000e+00 1.00000000e+00 0.00000000e+00 
5.83333349e+00 1.00000000e+00 0.00000000e+00 
6.66666651e+00 1.00000000e+00 0.00000000e+00 
7.50000000e+00 1.00000000e+00 0.00000000e+00 

        </DataArray>
      </Points>
      <Cells>
        <DataArray type="Int32" Name="connectivity" format="ascii">
0 1 5 4
4 5 9 8
8 9 13 12
1 2 6 5
5 6 10 9
9 10 14 13
2 3 7 6
6 7 11 10
10 11 15 14

        </DataArray>
        <DataArray type="Int32" Name="offsets" format="ascii">
4 8 12 16 20 24 28 32 36 
        </DataArray>
        <DataArray type="UInt8" Name="types" format="ascii">
9 9 9 9 9 9 9 9 9 
        </DataArray>
      </Cells>
      <PointData>
        <DataArray type="Float64" Name="u">