<?xml version="1.0"?>
<VTKFile type="UnstructuredGrid" version="0.1" byte_order="LittleEndian">
  <UnstructuredGrid>
    <Piece NumberOfPoints="16" NumberOfCells="9">
      <Points>
        <DataArray type="Float64" NumberOfComponents="3" format="ascii">
          0.00000000e+00 3.00000000e+00 0.00000000e+00 
8.33333313e-01 3.00000000e+00 0.00000000e+00 
1.66666663e+00 3.00000000e+00 0.00000000e+00 
2.50000000e+00 3.00000000e+00 0.00000000e+00 
0.00000000e+00 3.33333325e+00 0.00000000e+00 
8.33333313e-01 3.33333325e+00 0.00000000e+00 
1.66666663e+00 3.33333325e+00 0.00000000e+00 
2.50000000e+00 3.33333325e+00 0.00000000e+00 
0.00000000e+00 3.66666675e+00 0.00000000e+00 
8.33333313e-01 3.66666675e+00 0.00000000e+00 
1.66666663e+00 3.66666675e+00 0.00000000e+00 
2.50000000e+00 3.66666675e+00 0.00000000e+00 
0.00000000e+00 4.00000000e+00 0.00000000e+00 
8.33333313e-01 4.00000000e+00 0.00000000e+00 
1.66666663e+00 4.00000000e+00 0.00000000e+00 
2.50000000e+00 4.00000000e+00 0.00000000e+00 

        </DataArray>
      </Points>
      <Cells>
        <DataArray type="Int32" Name="connectivity" format="ascii">
0 1 5 4
4 5 9 8
8 9 13 12
1 2 6 5
5 6 10 9
9 10 14 13
2 3 7 6
6 7 11 10
10 11 15 14

        </DataArray>
        <DataArray type="Int32" Name="offsets" format="ascii">
4 8 12 16 20 24 28 32 36 
        </DataArray>
        <DataArray type="UInt8" Name="types" format="ascii">
9 9 9 9 9 9 9 9 9 
        </DataArray>
      </Cells>
      <PointData>
        <DataArray type="Float64" Name="u">
          0.00000000e+00 0.00000000e+00 0.00000000e+00 0.00000000e+00 8.88888889e+01 9.21406576e+01 9.14269327e+01 1.00015836e+02 1.55555556e+02 1.57902627e+02 1.58339030e+02 1.63280345e+02 2.00000000e+02 2.00774474e+02 2.01885913e+02 2.04047922e+02 
        </DataArray>
        <DataArray type="Float64" Name="v">
          0.00000000e+00 0.00000000e+00 0.00000000e+00 0.00000000e+00 0.00000000e+00 -1.12873451e+00 -1.62303811e+00 -4.13712330e+00 0.00000000e+00 -9.61702473e-01 -2.19424634e+00 -4.06384834e+00 0.00000000e+00 -2.17431404e+00 -3.81290556e+00 -6.27959371e+00 
        </DataArray>
        <DataArray type="Float64" Name="p">
          -2.79323925e+03 -3.95857192e+03 -5.12390459e+03 -6.28923726e+03 -2.76794986e+03 -3.91134509e+03 -5.05474032e+03 -6.19813555e+03 -2.74266048e+03 -3.86411827e+03 -4.98557605e+03 -6.10703384e+03 -2.71737110e+03 -3.81689144e+03 -4.91641178e+03 -6.01593213e+03 
        </DataArray>
      </PointData>
    </Piece>
    <Piece NumberOfPoints="16" NumberOfCells="9">
      <Points>
        <DataArray type="Float64" NumberOfComponents="3" format="ascii">
          0.00000000e+00 4.00000000e+00 0.00000000e+00 
8.33333313e-01 4.00000000e+00 0.00000000e+00 
1.66666663e+00 4.00000000e+00 0.00000000e+00 
2.50000000e+00 4.00000000e+00 0.00000000e+00 
0.00000000e+00 4.33333349e+00 0.00000000e+00 
8.33333313e-01 4.33333349e+00 0.00000000e+00 
1.66666663e+00 4.33333349e+00 0.00000000e+00 
2.50000000e+00 4.33333349e+00 0.00000000e+00 
0.00000000e+00 4.66666651e+00 0.00000000e+00 
8.33333313e-01 4.66666651e+00 0.00000000e+00 
1.66666663e+00 4.66666651e+00 0.00000000e+00 
2.50000000e+00 4.66666651e+00 0.00000000e+00 
0.00000000e+00 5.00000000e+00 0.00000000e+00 
8.33333313e-01 5.00000000e+00 0.00000000e+00 
1.66666663e+00 5.00000000e+00 0.00000000e+00 
2.50000000e+00 5.00000000e+00 0.00000000e+00 

        </DataArray>
      </Points>
      <Cells>
        <DataArray type="Int32" Name="connectivity" format="ascii">
0 1 5 4
4 5 9 8
8 9 13 12
1 2 6 5
5 6 10 9
9 10 14 13
2 3 7 6
6 7 11 10
10 11 15 14

        </DataArray>
        <DataArray type="Int32" Name="offsets" format="ascii">
4 8 12 16 20 24 28 32 36 
        </DataArray>
        <DataArray type="UInt8" Name="types" format="ascii">
9 9 9 9 9 9 9 9 9 
        </DataArray>
      </Cells>
      <PointData>
        <DataArray type="Float64" Name="u">
          2.00000000e+02 2.00774474e+02 2.01885913e+02 2.04047922e+02 2.22222222e+02 2.21806265e+02 2.22738749e+02 2.22575069e+02 2.22222222e+02 2.20655203e+02 2.21461808e+02 2.19049693e+02 2.00000000e+02 1.97581122e+02 1.98495464e+02 1.93901565e+02 
        </DataArray>
        <DataArray type="Float64" Name="v">
          0.00000000e+00 -2.17431404e+00 -3.81290556e+00 -6.27959371e+00 0.00000000e+00 -2.28361906e+00 -4.35335206e+00 -6.13318577e+00 0.00000000e+00 -2.28563779e+00 -4.17578047e+00 -6.20304127e+00 0.00000000e+00 -1.63456028e+00 -3.42788910e+00 -4.85008084e+00 
        </DataArray>
        <DataArray type="Float64" Name="p">
          -2.67865201e+03 -3.77673618e+03 -4.87482036e+03 -5.97290454e+03 -2.47708488e+03 -3.58548068e+03 -4.69387648e+03 -5.80227228e+03 -2.27551775e+03 -3.39422517e+03 -4.51293260e+03 -5.63164002e+03 -2.07395062e+03 -3.20296967e+03 -4.33198872e+03 -5.46100777e+03 
        </DataArray>
      </PointData>
    </Piece>
    <Piece NumberOfPoints="16" NumberOfCells="9">
      <Points>
        <DataArray type="Float64" NumberOfComponents="3" format="ascii">
          0.00000000e+00 5.00000000e+00 0.00000000e+00 
8.33333313e-01 5.00000000e+00 0.00000000e+00 
1.66666663e+00 5.00000000e+00 0.00000000e+00 
2.50000000e+00 5.00000000e+00 0.00000000e+00 
0.00000000e+00 5.33333349e+00 0.00000000e+00 
8.33333313e-01 5.33333349e+00 0.00000000e+00 
1.66666663e+00 5.33333349e+00 0.00000000e+00 
2.50000000e+00 5.33333349e+00 0.00000000e+00 
0.00000000e+00 5.66666651e+00 0.00000000e+00 
8.33333313e-01 5.66666651e+00 0.00000000e+00 
1.66666663e+00 5.66666651e+00 0.00000000e+00 
2.50000000e+00 5.66666651e+00 0.00000000e+00 
0.00000000e+00 6.00000000e+00 0.00000000e+00 
8.33333313e-01 6.00000000e+00 0.00000000e+00 
1.66666663e+00 6.00000000e+00 0.00000000e+00 
2.50000000e+00 6.00000000e+00 0.00000000e+00 

        </DataArray>
      </Points>
      <Cells>
        <DataArray type="Int32" Name="connectivity" format="ascii">
0 1 5 4
4 5 9 8
8 9 13 12
1 2 6 5
5 6 10 9
9 10 14 13
2 3 7 6
6 7 11 10
10 11 15 14

        </DataArray>
        <DataArray type="Int32" Name="offsets" format="ascii">
4 8 12 16 20 24 28 32 36 
        </DataArray>
        <DataArray type="UInt8" Name="types" format="ascii">
9 9 9 9 9 9 9 9 9 
        </DataArray>
      </Cells>
      <PointData>
        <DataArray type="Float64" Name="u">
          2.00000000e+02 1.97581122e+02 1.98495464e+02 1.93901565e+02 1.55555556e+02 1.53002211e+02 1.53828465e+02 1.48160754e+02 8.88888889e+01 8.68942516e+01 8.73124836e+01 8.16186448e+01 0.00000000e+00 0.00000000e+00 0.00000000e+00 0.00000000e+00 
        </DataArray>
        <DataArray type="Float64" Name="v">
          0.00000000e+00 -1.63456028e+00 -3.42788910e+00 -4.85008084e+00 0.00000000e+00 -6.13096121e-01 -1.70190533e+00 -2.79527693e+00 0.00000000e+00 -6.35645090e-01 -1.53446215e+00 -1.28208499e+00 0.00000000e+00 0.00000000e+00 0.00000000e+00 0.00000000e+00 
        </DataArray>
        <DataArray type="Float64" Name="p">
          -2.07375863e+03 -3.18348872e+03 -4.29321881e+03 -5.40294890e+03 -2.03825311e+03 -3.14345642e+03 -4.24865973e+03 -5.35386303e+03 -2.00274759e+03 -3.10342412e+03 -4.20410064e+03 -5.30477717e+03 -1.96724207e+03 -3.06339182e+03 -4.15954156e+03 -5.25569130e+03 
        </DataArray>
      </PointData>
    </Piece>
    <Piece NumberOfPoints="16" NumberOfCells="9">
      <Points>
        <DataArray type="Float64" NumberOfComponents="3" format="ascii">
          2.50000000e+00 0.00000000e+00 0.00000000e+00 
3.33333325e+00 0.00000000e+00 0.00000000e+00 
4.16666651e+00 0.00000000e+00 0.00000000e+00 
5.00000000e+00 0.00000000e+00 0.00000000e+00 
2.50000000e+00 3.33333343e-01 0.00000000e+00 
3.33333325e+00 3.33333343e-01 0.00000000e+00 
4.16666651e+00 3.33333343e-01 0.00000000e+00 
5.00000000e+00 3.33333343e-01 0.00000000e+00 
2.50000000e+00 6.66666687e-01 0.00000000e+00 
3.33333325e+00 6.66666687e-01 0.00000000e+00 
4.16666651e+00 6.66666687e-01 0.00000000e+00 
5.00000000e+00 6.66666687e-01 0.00000000e+00 
2.50000000e+00 1.00000000e+00 0.00000000e+00 
3.33333325e+00 1.00000000e+00 0.00000000e+00 
4.16666651e+00 1.00000000e+00 0.00000000e+00 
5.00000000e+00 1.00000000e+00 0.00000000e+00 

        </DataArray>
      </Points>
      <Cells>
        <DataArray type="Int32" Name="connectivity" format="ascii">
0 1 5 4
4 5 9 8
8 9 13 12
1 2 6 5
5 6 10 9
9 10 14 13
2 3 7 6
6 7 11 10
10 11 15 14

        </DataArray>
        <DataArray type="Int32" Name="offsets" format="ascii">
4 8 12 16 20 24 28 32 36 
        </DataArray>
        <DataArray type="UInt8" Name="types" format="ascii">
9 9 9 9 9 9 9 9 9 
        </DataArray>
      </Cells>
      <PointData>
        <DataArray type="Float64" Name="u">
          0.00000000e+00 0.00000000e+00 0.00000000e+00 0.00000000e+00 0.00000000e+00 -3.11899092e+00 -5.48349235e+00 -9.97036835e+00 0.00000000e+00 -5.46237974e+00 -9.81283088e+00 -1.70138818e+01 0.00000000e+00 -6.95278745e+00 -1.23011468e+01 -1.99742708e+01 
        </DataArray>
        <DataArray type="Float64" Name="v">
          0.00000000e+00 0.00000000e+00 0.00000000e+00 0.00000000e+00 0.00000000e+00 9.43800130e-01 1.01991973e+00 8.74630576e-01 0.00000000e+00 2.76525028e+00 2.84950722e+00 2.18681368e+00 0.00000000e+00 6.04878041e+00 5.99534078e+00 4.23844497e+00 
        </DataArray>
        <DataArray type="Float64" Name="p">
          -6.37075256e+03 -6.33313944e+03 -6.29552631e+03 -6.25791318e+03 -6.36064152e+03 -6.32180628e+03 -6.28297104e+03 -6.24413579e+03 -6.35053048e+03 -6.31047312e+03 -6.27041576e+03 -6.23035841e+03 -6.34041943e+03 -6.29913996e+03 -6.25786049e+03 -6.21658102e+03 
        </DataArray>
      </PointData>
    </Piece>
    <Piece NumberOfPoints="16" NumberOfCells="9">
      <Points>
        <DataArray type="Float64" NumberOfComponents="3" format="ascii">
          2.50000000e+00 1.00000000e+00 0.00000000e+00 
3.33333325e+00 1.00000000e+00 0.00000000e+00 
4.16666651e+00 1.00000000e+00 0.00000000e+00 
5.00000000e+00 1.00000000e+00 0.00000000e+00 
2.50000000e+00 1.33333337e+00 0.00000000e+00 
3.33333325e+00 1.33333337e+00 0.00000000e+00 
4.16666651e+00 1.33333337e+00 0.00000000e+00 
5.00000000e+00 1.33333337e+00 0.00000000e+00 
2.50000000e+00 1.66666663e+00 0.00000000e+00 
3.33333325e+00 1.66666663e+00 0.00000000e+00 
4.16666651e+00 1.66666663e+00 0.00000000e+00 
5.00000000e+00 1.66666663e+00 0.00000000e+00 
2.50000000e+00 2.00000000e+00 0.00000000e+00 
3.33333325e+00 2.00000000e+00 0.00000000e+00 
4.16666651e+00 2.00000000e+00 0.00000000e+00 
5.00000000e+00 2.00000000e+00 0.00000000e+00 

        </DataArray>
      </Points>
      <Cells>
        <DataArray type="Int32" Name="connectivity" format="ascii">
0 1 5 4
4 5 9 8
8 9 13 12
1 2 6 5
5 6 10 9
9 10 14 13
2 3 7 6
6 7 11 10
10 11 15 14

        </DataArray>
        <DataArray type="Int32" Name="offsets" format="ascii">
4 8 12 16 20 24 28 32 36 
        </DataArray>
        <DataArray type="UInt8" Name="types" format="ascii">
9 9 9 9 9 9 9 9 9 
        </DataArray>
      </Cells>
      <PointData>
        <DataArray type="Float64" Name="u">
          0.00000000e+00 -6.95278745e+00 -1.23011468e+01 -1.99742708e+01 0.00000000e+00 -7.51897601e+00 -1.23989569e+01 -1.85528321e+01 0.00000000e+00 -6.97979509e+00 -9.69988429e+00 -1.21889948e+01 0.00000000e+00 -4.84439673e+00 -3.52997995e+00 -2.20800859e-01 
        </DataArray>
        <DataArray type="Float64" Name="v">
          0.00000000e+00 6.04878041e+00 5.99534078e+00 4.23844497e+00 0.00000000e+00 9.92256511e+00 9.07200452e+00 5.56684720e+00 0.00000000e+00 1.28094457e+01 1.09970986e+01 5.57473425e+00 0.00000000e+00 1.56045932e+01 1.16293979e+01 3.63705604e+00 
        </DataArray>
        <DataArray type="Float64" Name="p">
          -6.32781018e+03 -6.29577955e+03 -6.26374893e+03 -6.23171830e+03 -6.40067244e+03 -6.36561523e+03 -6.33055802e+03 -6.29550081e+03 -6.47353470e+03 -6.43545091e+03 -6.39736711e+03 -6.35928331e+03 -6.54639697e+03 -6.50528658e+03 -6.46417620e+03 -6.42306582e+03 
        </DataArray>
      </PointData>
    </Piece>
    <Piece NumberOfPoints="16" NumberOfCells="9">
      <Points>
        <DataArray type="Float64" NumberOfComponents="3" format="ascii">
          2.50000000e+00 2.00000000e+00 0.00000000e+00 
3.33333325e+00 2.00000000e+00 0.00000000e+00 
4.16666651e+00 2.00000000e+00 0.00000000e+00 
5.00000000e+00 2.00000000e+00 0.00000000e+00 
2.50000000e+00 2.33333325e+00 0.00000000e+00 
3.33333325e+00 2.33333325e+00 0.00000000e+00 
4.16666651e+00 2.33333325e+00 0.00000000e+00 
5.00000000e+00 2.33333325e+00 0.00000000e+00 
2.50000000e+00 2.66666675e+00 0.00000000e+00 
3.33333325e+00 2.66666675e+00 0.00000000e+00 
4.16666651e+00 2.66666675e+00 0.00000000e+00 
5.00000000e+00 2.66666675e+00 0.00000000e+00 
2.50000000e+00 3.00000000e+00 0.00000000e+00 
3.33333325e+00 3.00000000e+00 0.00000000e+00 
4.16666651e+00 3.00000000e+00 0.00000000e+00 
5.00000000e+00 3.00000000e+00 0.00000000e+00 

        </DataArray>
      </Points>
      <Cells>
        <DataArray type="Int32" Name="connectivity" format="ascii">
0 1 5 4
4 5 9 8
8 9 13 12
1 2 6 5
5 6 10 9
9 10 14 13
2 3 7 6
6 7 11 10
10 11 15 14

        </DataArray>
        <DataArray type="Int32" Name="offsets" format="ascii">
4 8 12 16 20 24 28 32 36 
        </DataArray>
        <DataArray type="UInt8" Name="types" format="ascii">
9 9 9 9 9 9 9 9 9 
        </DataArray>
      </Cells>
      <PointData>
        <DataArray type="Float64" Name="u">
          0.00000000e+00 -4.84439673e+00 -3.52997995e+00 -2.20800859e-01 0.00000000e+00 6.77145985e-02 6.67509983e+00 1.99871623e+01 0.00000000e+00 1.42555743e+01 2.65635009e+01 4.83796546e+01 0.00000000e+00 5.30128015e+01 6.45430375e+01 8.81632630e+01 
        </DataArray>
        <DataArray type="Float64" Name="v">
          0.00000000e+00 1.56045932e+01 1.16293979e+01 3.63705604e+00 0.00000000e+00 1.67069577e+01 8.27563386e+00 -1.74664222e+00 0.00000000e+00 1.23299989e+01 3.79922190e+00 -6.30311925e+00 0.00000000e+00 -1.03627051e+00 -5.97826490e+00 -1.08345296e+01 
        </DataArray>
        <DataArray type="Float64" Name="p">
          -6.50413221e+03 -6.51594482e+03 -6.52775743e+03 -6.53957005e+03 -6.79493036e+03 -6.64794636e+03 -6.50096236e+03 -6.35397835e+03 -7.08572852e+03 -6.77994790e+03 -6.47416728e+03 -6.16838666e+03 -7.37652668e+03 -6.91194944e+03 -6.44737220e+03 -5.98279496e+03 
        </DataArray>
      </PointData>
    </Piece>
    <Piece NumberOfPoints="16" NumberOfCells="9">
      <Points>
        <DataArray type="Float64" NumberOfComponents="3" format="ascii">
          2.50000000e+00 3.00000000e+00 0.00000000e+00 
3.33333325e+00 3.00000000e+00 0.00000000e+00 
4.16666651e+00 3.00000000e+00 0.00000000e+00 
5.00000000e+00 3.00000000e+00 0.00000000e+00 
2.50000000e+00 3.33333325e+00 0.00000000e+00 
3.33333325e+00 3.33333325e+00 0.00000000e+00 
4.16666651e+00 3.33333325e+00 0.00000000e+00 
5.00000000e+00 3.33333325e+00 0.00000000e+00 
2.50000000e+00 3.66666675e+00 0.00000000e+00 
3.33333325e+00 3.66666675e+00 0.00000000e+00 
4.16666651e+00 3.66666675e+00 0.00000000e+00 
5.00000000e+00 3.66666675e+00 0.00000000e+00 
2.50000000e+00 4.00000000e+00 0.00000000e+00 
3.33333325e+00 4.00000000e+00 0.00000000e+00 
4.16666651e+00 4.00000000e+00 0.00000000e+00 
5.00000000e+00 4.00000000e+00 0.00000000e+00 

        </DataArray>
      </Points>
      <Cells>
        <DataArray type="Int32" Name="connectivity" format="ascii">
0 1 5 4
4 5 9 8
8 9 13 12
1 2 6 5
5 6 10 9
9 10 14 13
2 3 7 6
6 7 11 10
10 11 15 14

        </DataArray>
        <DataArray type="Int32" Name="offsets" format="ascii">
4 8 12 16 20 24 28 32 36 
        </DataArray>
        <DataArray type="UInt8" Name="types" format="ascii">
9 9 9 9 9 9 9 9 9 
        </DataArray>
      </Cells>
      <PointData>
        <DataArray type="Float64" Name="u">
          0.00000000e+00 5.30128015e+01 6.45430375e+01 8.81632630e+01 1.00015836e+02 1.07593912e+02 1.18600883e+02 1.30053045e+02 1.63280345e+02 1.62664475e+02 1.68298372e+02 1.70908618e+02 2.04047922e+02 1.99287738e+02 2.02345057e+02 1.97965274e+02 
        </DataArray>
        <DataArray type="Float64" Name="v">
          0.00000000e+00 -1.03627051e+00 -5.97826490e+00 -1.08345296e+01 -4.13712330e+00 -1.23917162e+01 -1.38606394e+01 -1.33081567e+01 -4.06384834e+00 -1.25769428e+01 -1.55893789e+01 -1.53951381e+01 -6.27959371e+00 -1.26293698e+01 -1.58622833e+01 -1.81544068e+01 
        </DataArray>
        <DataArray type="Float64" Name="p">
          -7.52023580e+03 -6.96349318e+03 -6.40675055e+03 -5.85000792e+03 -6.89281929e+03 -6.59615157e+03 -6.29948384e+03 -6.00281611e+03 -6.26540278e+03 -6.22880995e+03 -6.19221712e+03 -6.15562429e+03 -5.63798627e+03 -5.86146834e+03 -6.08495041e+03 -6.30843248e+03 
        </DataArray>
      </PointData>
    </Piece>
    <Piece NumberOfPoints="16" NumberOfCells="9">
      <Points>
        <DataArray type="Float64" NumberOfComponents="3" format="ascii">
          2.50000000e+00 4.00000000e+00 0.00000000e+00 
3.33333325e+00 4.00000000e+00 0.00000000e+00 
4.16666651e+00 4.00000000e+00 0.00000000e+00 
5.00000000e+00 4.00000000e+00 0.00000000e+00 
2.50000000e+00 4.33333349e+00 0.00000000e+00 
3.33333325e+00 4.33333349e+00 0.00000000e+00 
4.16666651e+00 4.33333349e+00 0.00000000e+00 
5.00000000e+00 4.33333349e+00 0.00000000e+00 
2.50000000e+00 4.66666651e+00 0.00000000e+00 
3.33333325e+00 4.66666651e+00 0.00000000e+00 
4.16666651e+00 4.66666651e+00 0.00000000e+00 
5.00000000e+00 4.66666651e+00 0.00000000e+00 
2.50000000e+00 5.00000000e+00 0.00000000e+00 
3.33333325e+00 5.00000000e+00 0.00000000e+00 
4.16666651e+00 5.00000000e+00 0.00000000e+00 
5.00000000e+00 5.00000000e+00 0.00000000e+00 

        </DataArray>
      </Points>
      <Cells>
        <DataArray type="Int32" Name="connectivity" format="ascii">
0 1 5 4
4 5 9 8
8 9 13 12
1 2 6 5
5 6 10 9
9 10 14 13
2 3 7 6
6 7 11 10
10 11 15 14

        </DataArray>
        <DataArray type="Int32" Name="offsets" format="ascii">
4 8 12 16 20 24 28 32 36 
        </DataArray>
        <DataArray type="UInt8" Name="types" format="ascii">
9 9 9 9 9 9 9 9 9 
        </DataArray>
      </Cells>
      <PointData>
        <DataArray type="Float64" Name="u">
          2.04047922e+02 1.99287738e+02 2.02345057e+02 1.97965274e+02 2.22575069e+02 2.16006980e+02 2.14900586e+02 2.07297309e+02 2.19049693e+02 2.10913239e+02 2.07014180e+02 1.96497292e+02 1.93901565e+02 1.85335642e+02 1.79751859e+02 1.68009492e+02 
        </DataArray>
        <DataArray type="Float64" Name="v">
          -6.27959371e+00 -1.26293698e+01 -1.58622833e+01 -1.81544068e+01 -6.13318577e+00 -9.60643244e+00 -1.37051193e+01 -1.75341186e+01 -6.20304127e+00 -8.88642908e+00 -1.15811080e+01 -1.51555677e+01 -4.85008084e+00 -4.31200284e+00 -7.38519496e+00 -1.17812035e+01 
        </DataArray>
        <DataArray type="Float64" Name="p">
          -5.46420898e+03 -5.73434826e+03 -6.00448754e+03 -6.27462682e+03 -5.19769795e+03 -5.43001136e+03 -5.66232477e+03 -5.89463818e+03 -4.93118692e+03 -5.12567446e+03 -5.32016200e+03 -5.51464954e+03 -4.66467589e+03 -4.82133756e+03 -4.97799923e+03 -5.13466090e+03 
        </DataArray>
      </PointData>
    </Piece>
    <Piece NumberOfPoints="16" NumberOfCells="9">
      <Points>
        <DataArray type="Float64" NumberOfComponents="3" format="ascii">
          2.50000000e+00 5.00000000e+00 0.00000000e+00 
3.33333325e+00 5.00000000e+00 0.00000000e+00 
4.16666651e+00 5.00000000e+00 0.00000000e+00 
5.00000000e+00 5.00000000e+00 0.00000000e+00 
2.50000000e+00 5.33333349e+00 0.00000000e+00 
3.33333325e+00 5.33333349e+00 0.00000000e+00 
4.16666651e+00 5.33333349e+00 0.00000000e+00 
5.00000000e+00 5.33333349e+00 0.00000000e+00 
2.50000000e+00 5.66666651e+00 0.00000000e+00 
3.33333325e+00 5.66666651e+00 0.00000000e+00 
4.16666651e+00 5.66666651e+00 0.00000000e+00 
5.00000000e+00 5.66666651e+00 0.00000000e+00 
2.50000000e+00 6.00000000e+00 0.00000000e+00 
3.33333325e+00 6.00000000e+00 0.00000000e+00 
4.16666651e+00 6.00000000e+00 0.00000000e+00 
5.00000000e+00 6.00000000e+00 0.00000000e+00 

        </DataArray>
      </Points>
      <Cells>
        <DataArray type="Int32" Name="connectivity" format="ascii">
0 1 5 4
4 5 9 8
8 9 13 12
1 2 6 5
5 6 10 9
9 10 14 13
2 3 7 6
6 7 11 10
10 11 15 14

        </DataArray>
        <DataArray type="Int32" Name="offsets" format="ascii">
4 8 12 16 20 24 28 32 36 
        </DataArray>
        <DataArray type="UInt8" Name="types" format="ascii">
9 9 9 9 9 9 9 9 9 
        </DataArray>
      </Cells>
      <PointData>
        <DataArray type="Float64" Name="u">
          1.93901565e+02 1.85335642e+02 1.79751859e+02 1.68009492e+02 1.48160754e+02 1.40493453e+02 1.34693159e+02 1.25992520e+02 8.16186448e+01 8.32941442e+01 8.15956261e+01 8.10818280e+01 0.00000000e+00 3.64395813e+01 3.68578114e+01 4.74199730e+01 
        </DataArray>
        <DataArray type="Float64" Name="v">
          -4.85008084e+00 -4.31200284e+00 -7.38519496e+00 -1.17812035e+01 -2.79527693e+00 -1.60759482e-01 -2.35286650e+00 -7.53549111e+00 -1.28208499e+00 9.29238937e-03 -3.27032666e+00 -6.43470508e+00 0.00000000e+00 -5.88949673e+00 -4.27122738e+00 -2.60580477e+00 
        </DataArray>
        <DataArray type="Float64" Name="p">
          -4.76601805e+03 -4.83716221e+03 -4.90830636e+03 -4.97945052e+03 -5.01301668e+03 -4.91368635e+03 -4.81435602e+03 -4.71502570e+03 -5.26001532e+03 -4.99021050e+03 -4.72040569e+03 -4.45060087e+03 -5.50701395e+03 -5.06673465e+03 -4.62645535e+03 -4.18617605e+03 
        </DataArray>
      </PointData>
    </Piece>
    <Piece NumberOfPoints="16" NumberOfCells="9">
      <Points>
        <DataArray type="Float64" NumberOfComponents="3" format="ascii">
          2.50000000e+00 6.00000000e+00 0.00000000e+00 
3.33333325e+00 6.00000000e+00 0.00000000e+00 
4.16666651e+00 6.00000000e+00 0.00000000e+00 
5.00000000e+00 6.00000000e+00 0.00000000e+00 
2.50000000e+00 6.33333349e+00 0.00000000e+00 
3.33333325e+00 6.33333349e+00 0.00000000e+00 
4.16666651e+00 6.33333349e+00 0.00000000e+00 
5.00000000e+00 6.33333349e+00 0.00000000e+00 
2.50000000e+00 6.66666651e+00 0.00000000e+00 
3.33333325e+00 6.66666651e+00 0.00000000e+00 
4.16666651e+00 6.66666651e+00 0.00000000e+00 
5.00000000e+00 6.66666651e+00 0.00000000e+00 
2.50000000e+00 7.00000000e+00 0.00000000e+00 
3.33333325e+00 7.00000000e+00 0.00000000e+00 
4.16666651e+00 7.00000000e+00 0.00000000e+00 
5.00000000e+00 7.00000000e+00 0.00000000e+00 

        </DataArray>
      </Points>
      <Cells>
        <DataArray type="Int32" Name="connectivity" format="ascii">
0 1 5 4
4 5 9 8
8 9 13 12
1 2 6 5
5 6 10 9
9 10 14 13
2 3 7 6
6 7 11 10
10 11 15 14

        </DataArray>
        <DataArray type="Int32" Name="offsets" format="ascii">
4 8 12 16 20 24 28 32 36 
        </DataArray>
        <DataArray type="UInt8" Name="types" format="ascii">
9 9 9 9 9 9 9 9 9 
        </DataArray>
      </Cells>
      <PointData>
        <DataArray type="Float64" Name="u">
          0.00000000e+00 3.64395813e+01 3.68578114e+01 4.74199730e+01 0.00000000e+00 7.67723711e+00 1.14751933e+01 1.98679647e+01 0.00000000e+00 -2.25628499e+00 -1.09495099e+00 2.16617701e+00 0.00000000e+00 -5.41292200e+00 -7.09702062e+00 -8.92250229e+00 
        </DataArray>
        <DataArray type="Float64" Name="v">
          0.00000000e+00 -5.88949673e+00 -4.27122738e+00 -2.60580477e+00 0.00000000e+00 -1.36625160e+01 -8.39943970e+00 -2.88780746e+00 0.00000000e+00 -1.53134568e+01 -9.37889828e+00 -3.89505700e+00 0.00000000e+00 -1.32600211e+01 -9.96592674e+00 -5.25009187e+00 
        </DataArray>
        <DataArray type="Float64" Name="p">
          -5.47266496e+03 -5.12092895e+03 -4.76919295e+03 -4.41745695e+03 -5.24107161e+03 -5.00006857e+03 -4.75906553e+03 -4.51806249e+03 -5.00947826e+03 -4.87920818e+03 -4.74893810e+03 -4.61866802e+03 -4.77788492e+03 -4.75834780e+03 -4.73881068e+03 -4.71927356e+03 
        </DataArray>
      </PointData>
    </Piece>
    <Piece NumberOfPoints="16" NumberOfCells="9">
      <Points>
        <DataArray type="Float64" NumberOfComponents="3" format="ascii">
          2.50000000e+00 7.00000000e+00 0.00000000e+00 
3.33333325e+00 7.00000000e+00 0.00000000e+00 
4.16666651e+00 7.00000000e+00 0.00000000e+00 
5.00000000e+00 7.00000000e+00 0.00000000e+00 
2.50000000e+00 7.33333349e+00 0.00000000e+00 
3.33333325e+00 7.33333349e+00 0.00000000e+00 
4.16666651e+00 7.33333349e+00 0.00000000e+00 
5.00000000e+00 7.33333349e+00 0.00000000e+00 
2.50000000e+00 7.66666651e+00 0.00000000e+00 
3.33333325e+00 7.66666651e+00 0.00000000e+00 
4.16666651e+00 7.66666651e+00 0.00000000e+00 
5.00000000e+00 7.66666651e+00 0.00000000e+00 
2.50000000e+00 8.00000000e+00 0.00000000e+00 
3.33333325e+00 8.00000000e+00 0.00000000e+00 
4.16666651e+00 8.00000000e+00 0.00000000e+00 
5.00000000e+00 8.00000000e+00 0.00000000e+00 

        </DataArray>
      </Points>
      <Cells>
        <DataArray type="Int32" Name="connectivity" format="ascii">
0 1 5 4
4 5 9 8
8 9 13 12
1 2 6 5
5 6 10 9
9 10 14 13
2 3 7 6
6 7 11 10
10 11 15 14

        </DataArray>
        <DataArray type="Int32" Name="offsets" format="ascii">
4 8 12 16 20 24 28 32 36 
        </DataArray>
        <DataArray type="UInt8" Name="types" format="ascii">
9 9 9 9 9 9 9 9 9 
        </DataArray>
      </Cells>
      <PointData>
        <DataArray type="Float64" Name="u">
          0.00000000e+00 -5.41292200e+00 -7.09702062e+00 -8.92250229e+00 0.00000000e+00 -6.38127503e+00 -1.00669279e+01 -1.42856365e+01 0.00000000e+00 -6.18494912e+00 -1.06697385e+01 -1.61177610e+01 0.00000000e+00 -5.30813920e+00 -9.58598834e+00 -1.51619018e+01 
        </DataArray>
        <DataArray type="Float64" Name="v">
          0.00000000e+00 -1.32600211e+01 -9.96592674e+00 -5.25009187e+00 0.00000000e+00 -1.02407762e+01 -8.43426625e+00 -5.03702127e+00 0.00000000e+00 -7.64470248e+00 -6.58535357e+00 -4.18485338e+00 0.00000000e+00 -4.48158500e+00 -4.18730827e+00 -2.80341697e+00 
        </DataArray>
        <DataArray type="Float64" Name="p">
          -4.80031477e+03 -4.74994986e+03 -4.69958496e+03 -4.64922005e+03 -4.73883146e+03 -4.69985243e+03 -4.66087339e+03 -4.62189436e+03 -4.67734815e+03 -4.64975499e+03 -4.62216183e+03 -4.59456867e+03 -4.61586484e+03 -4.59965755e+03 -4.58345026e+03 -4.56724298e+03 
        </DataArray>
      </PointData>
    </Piece>
    <Piece NumberOfPoints="16" NumberOfCells="9">
      <Points>
        <DataArray type="Float64" NumberOfComponents="3" format="ascii">
          2.50000000e+00 8.00000000e+00 0.00000000e+00 
3.33333325e+00 8.00000000e+00 0.00000000e+00 
4.16666651e+00 8.00000000e+00 0.00000000e+00 
5.00000000e+00 8.00000000e+00 0.00000000e+00 
2.50000000e+00 8.33333302e+00 0.00000000e+00 
3.33333325e+00 8.33333302e+00 0.00000000e+00 
4.16666651e+00 8.33333302e+00 0.00000000e+00 
5.00000000e+00 8.33333302e+00 0.00000000e+00 
2.50000000e+00 8.66666698e+00 0.00000000e+00 
3.33333325e+00 8.66666698e+00 0.00000000e+00 
4.16666651e+00 8.66666698e+00 0.00000000e+00 
5.00000000e+00 8.66666698e+00 0.00000000e+00 
2.50000000e+00 9.00000000e+00 0.00000000e+00 
3.33333325e+00 9.00000000e+00 0.00000000e+00 
4.16666651e+00 9.00000000e+00 0.00000000e+00 
5.00000000e+00 9.00000000e+00 0.00000000e+00 

        </DataArray>
      </Points>
      <Cells>
        <DataArray type="Int32" Name="connectivity" format="ascii">
0 1 5 4
4 5 9 8
8 9 13 12
1 2 6 5
5 6 10 9
9 10 14 13
2 3 7 6
6 7 11 10
10 11 15 14

        </DataArray>
        <DataArray type="Int32" Name="offsets" format="ascii">
4 8 12 16 20 24 28 32 36 
        </DataArray>
        <DataArray type="UInt8" Name="types" format="ascii">
9 9 9 9 9 9 9 9 9 
        </DataArray>
      </Cells>
      <PointData>
        <DataArray type="Float64" Name="u">
          0.00000000e+00 -5.30813920e+00 -9.58598834e+00 -1.51619018e+01 0.00000000e+00 -3.97356904e+00 -7.24349624e+00 -1.20295547e+01 0.00000000e+00 -2.20303089e+00 -3.92789640e+00 -6.92489201e+00 0.00000000e+00 0.00000000e+00 0.00000000e+00 0.00000000e+00 
        </DataArray>
        <DataArray type="Float64" Name="v">
          0.00000000e+00 -4.48158500e+00 -4.18730827e+00 -2.80341697e+00 0.00000000e+00 -2.00992805e+00 -2.01693289e+00 -1.33437120e+00 0.00000000e+00 -6.54896172e-01 -7.11843862e-01 -4.64458201e-01 0.00000000e+00 0.00000000e+00 0.00000000e+00 0.00000000e+00 
        </DataArray>
        <DataArray type="Float64" Name="p">
          -4.62830070e+03 -4.60639626e+03 -4.58449181e+03 -4.56258737e+03 -4.63767477e+03 -4.61580474e+03 -4.59393471e+03 -4.57206468e+03 -4.64704885e+03 -4.62521323e+03 -4.60337761e+03 -4.58154199e+03 -4.65642292e+03 -4.63462171e+03 -4.61282051e+03 -4.59101930e+03 
        </DataArray>
      </PointData>
    </Piece>
    <Piece NumberOfPoints="16" NumberOfCells="9">
      <Points>
        <DataArray type="Float64" NumberOfComponents="3" format="ascii">
          5.00000000e+00 0.00000000e+00 0.00000000e+00 
5.83333349e+00 0.00000000e+00 0.00000000e+00 
6.66666651e+00 0.00000000e+00 0.00000000e+00 
7.50000000e+00 0.00000000e+00 0.00000000e+00 
5.00000000e+00 3.33333343e-01 0.00000000e+00 
5.83333349e+00 3.33333343e-01 0.00000000e+00 
6.66666651e+00 3.33333343e-01 0.00000000e+00 
7.50000000e+00 3.33333343e-01 0.00000000e+00 
5.00000000e+00 6.66666687e-01 0.00000000e+00 
5.83333349e+00 6.66666687e-01 0.00000000e+00 
6.66666651e+00 6.66666687e-01 0.00000000e+00 
7.50000000e+00 6.66666687e-01 0.00000000e+00 
5.00000000e+00 1.00000000e+00 0.00000000e+00 
5.83333349e+00 1.00000000e+00 0.00000000e+00 
6.66666651e+00 1.00000000e+00 0.00000000e+00 
7.50000000e+00 1.00000000e+00 0.00000000e+00 

        </DataArray>
      </Points>
      <Cells>
        <DataArray type="Int32" Name="connectivity" format="ascii">
0 1 5 4
4 5 9 8
8 9 13 12
1 2 6 5
5 6 10 9
9 10 14 13
2 3 7 6
6 7 11 10
10 11 15 14

        </DataArray>
        <DataArray type="Int32" Name="offsets" format="ascii">
4 8 12 16 20 24 28 32 36 
        </DataArray>
        <DataArray type="UInt8" Name="types" format="ascii">
9 9 9 9 9 9 9 9 9 
        </DataArray>
      </Cells>
      <PointData>
        <DataArray type="Float64" Name="u">