<?xml version="1.0"?>
<VTKFile type="UnstructuredGrid" version="0.1" byte_order="LittleEndian">
  <UnstructuredGrid>
    <Piece NumberOfPoints="16" NumberOfCells="9">
      <Points>
        <DataArray type="Float64" NumberOfComponents="3" format="ascii">
          0.00000000e+00 3.00000000e+00 0.00000000e+00 
8.33333313e-01 3.00000000e+00 0.00000000e+00 
1.66666663e+00 3.00000000e+00 0.00000000e+00 
2.50000000e+00 3.00000000e+00 0.00000000e+00 
0.00000000e+00 3.33333325e+00 0.00000000e+00 
8.33333313e-01 3.33333325e+00 0.00000000e+00 
1.66666663e+00 3.33333325e+00 0.00000000e+00 
2.50000000e+00 3.33333325e+00 0.00000000e+00 
0.00000000e+00 3.66666675e+00 0.00000000e+00 
8.33333313e-01 3.66666675e+00 0.00000000e+00 
1.66666663e+00 3.66666675e+00 0.00000000e+00 
2.50000000e+00 3.66666675e+00 0.00000000e+00 
0.00000000e+00 4.00000000e+00 0.00000000e+00 
8.33333313e-01 4.00000000e+00 0.00000000e+00 
1.66666663e+00 4.00000000e+00 0.00000000e+00 
2.50000000e+00 4.00000000e+00 0.00000000e+00 

        </DataArray>
      </Points>
      <Cells>
        <DataArray type="Int32" Name="connectivity" format="ascii">
0 1 5 4
4 5 9 8
8 9 13 12
1 2 6 5
5 6 10 9
9 10 14 13
2 3 7 6
6 7 11 10
10 11 15 14

        </DataArray>
        <DataArray type="Int32" Name="offsets" format="ascii">
4 8 12 16 20 24 28 32 36 
        </DataArray>
        <DataArray type="UInt8" Name="types" format="ascii">
9 9 9 9 9 9 9 9 9 
        </DataArray>
      </Cells>
      <PointData>
        <DataArray type="Float64" Name="u">
          0.00000000e+00 0.00000000e+00 0.00000000e+00 0.00000000e+00 8.88888889e+01 8.94766063e+01 8.95163679e+01 9.11677941e+01 1.55555556e+02 1.55364609e+02 1.56289133e+02 1.55834055e+02 2.00000000e+02 1.98954718e+02 2.00385771e+02 1.98707051e+02 
        </DataArray>
        <DataArray type="Float64" Name="v">
          0.00000000e+00 0.00000000e+00 0.00000000e+00 0.00000000e+00 0.00000000e+00 -2.44793264e-01 -4.67305731e-02 -1.76940024e+00 0.00000000e+00 -2.20687493e-01 -2.45791554e-01 -9.34373320e-01 0.00000000e+00 -3.10249070e-01 -2.51665119e-01 -8.65963279e-01 
        </DataArray>
        <DataArray type="Float64" Name="p">
          -1.27328996e+03 -2.72446448e+03 -4.17563900e+03 -5.62681352e+03 -1.28449143e+03 -2.72171242e+03 -4.15893342e+03 -5.59615441e+03 -1.29569290e+03 -2.71896037e+03 -4.14222784e+03 -5.56549531e+03 -1.30689436e+03 -2.71620831e+03 -4.12552226e+03 -5.53483620e+03 
        </DataArray>
      </PointData>
    </Piece>
    <Piece NumberOfPoints="16" NumberOfCells="9">
      <Points>
        <DataArray type="Float64" NumberOfComponents="3" format="ascii">
          0.00000000e+00 4.00000000e+00 0.00000000e+00 
8.33333313e-01 4.00000000e+00 0.00000000e+00 
1.66666663e+00 4.00000000e+00 0.00000000e+00 
2.50000000e+00 4.00000000e+00 0.00000000e+00 
0.00000000e+00 4.33333349e+00 0.00000000e+00 
8.33333313e-01 4.33333349e+00 0.00000000e+00 
1.66666663e+00 4.33333349e+00 0.00000000e+00 
2.50000000e+00 4.33333349e+00 0.00000000e+00 
0.00000000e+00 4.66666651e+00 0.00000000e+00 
8.33333313e-01 4.66666651e+00 0.00000000e+00 
1.66666663e+00 4.66666651e+00 0.00000000e+00 
2.50000000e+00 4.66666651e+00 0.00000000e+00 
0.00000000e+00 5.00000000e+00 0.00000000e+00 
8.33333313e-01 5.00000000e+00 0.00000000e+00 
1.66666663e+00 5.00000000e+00 0.00000000e+00 
2.50000000e+00 5.00000000e+00 0.00000000e+00 

        </DataArray>
      </Points>
      <Cells>
        <DataArray type="Int32" Name="connectivity" format="ascii">
0 1 5 4
4 5 9 8
8 9 13 12
1 2 6 5
5 6 10 9
9 10 14 13
2 3 7 6
6 7 11 10
10 11 15 14

        </DataArray>
        <DataArray type="Int32" Name="offsets" format="ascii">
4 8 12 16 20 24 28 32 36 
        </DataArray>
        <DataArray type="UInt8" Name="types" format="ascii">
9 9 9 9 9 9 9 9 9 
        </DataArray>
      </Cells>
      <PointData>
        <DataArray type="Float64" Name="u">
          2.00000000e+02 1.98954718e+02 2.00385771e+02 1.98707051e+02 2.22222222e+02 2.20915855e+02 2.22210437e+02 2.20526784e+02 2.22222222e+02 2.20915855e+02 2.22210437e+02 2.20526784e+02 2.00000000e+02 1.98954718e+02 2.00385771e+02 1.98707051e+02 
        </DataArray>
        <DataArray type="Float64" Name="v">
          0.00000000e+00 -3.10249070e-01 -2.51665119e-01 -8.65963279e-01 0.00000000e+00 -1.53393350e-02 -1.06286421e-01 3.40339776e-02 0.00000000e+00 1.53393350e-02 1.06286421e-01 -3.40339776e-02 0.00000000e+00 3.10249070e-01 2.51665119e-01 8.65963279e-01 
        </DataArray>
        <DataArray type="Float64" Name="p">
          -1.28514862e+03 -2.70155305e+03 -4.11795748e+03 -5.53436191e+03 -1.28514862e+03 -2.70155305e+03 -4.11795748e+03 -5.53436191e+03 -1.28514862e+03 -2.70155305e+03 -4.11795748e+03 -5.53436191e+03 -1.28514862e+03 -2.70155305e+03 -4.11795748e+03 -5.53436191e+03 
        </DataArray>
      </PointData>
    </Piece>
    <Piece NumberOfPoints="16" NumberOfCells="9">
      <Points>
        <DataArray type="Float64" NumberOfComponents="3" format="ascii">
          0.00000000e+00 5.00000000e+00 0.00000000e+00 
8.33333313e-01 5.00000000e+00 0.00000000e+00 
1.66666663e+00 5.00000000e+00 0.00000000e+00 
2.50000000e+00 5.00000000e+00 0.00000000e+00 
0.00000000e+00 5.33333349e+00 0.00000000e+00 
8.33333313e-01 5.33333349e+00 0.00000000e+00 
1.66666663e+00 5.33333349e+00 0.00000000e+00 
2.50000000e+00 5.33333349e+00 0.00000000e+00 
0.00000000e+00 5.66666651e+00 0.00000000e+00 
8.33333313e-01 5.66666651e+00 0.00000000e+00 
1.66666663e+00 5.66666651e+00 0.00000000e+00 
2.50000000e+00 5.66666651e+00 0.00000000e+00 
0.00000000e+00 6.00000000e+00 0.00000000e+00 
8.33333313e-01 6.00000000e+00 0.00000000e+00 
1.66666663e+00 6.00000000e+00 0.00000000e+00 
2.50000000e+00 6.00000000e+00 0.00000000e+00 

        </DataArray>
      </Points>
      <Cells>
        <DataArray type="Int32" Name="connectivity" format="ascii">
0 1 5 4
4 5 9 8
8 9 13 12
1 2 6 5
5 6 10 9
9 10 14 13
2 3 7 6
6 7 11 10
10 11 15 14

        </DataArray>
        <DataArray type="Int32" Name="offsets" format="ascii">
4 8 12 16 20 24 28 32 36 
        </DataArray>
        <DataArray type="UInt8" Name="types" format="ascii">
9 9 9 9 9 9 9 9 9 
        </DataArray>
      </Cells>
      <PointData>
        <DataArray type="Float64" Name="u">
          2.00000000e+02 1.98954718e+02 2.00385771e+02 1.98707051e+02 1.55555556e+02 1.55364609e+02 1.56289133e+02 1.55834055e+02 8.88888889e+01 8.94766063e+01 8.95163679e+01 9.11677941e+01 0.00000000e+00 0.00000000e+00 0.00000000e+00 0.00000000e+00 
        </DataArray>
        <DataArray type="Float64" Name="v">
          0.00000000e+00 3.10249070e-01 2.51665119e-01 8.65963279e-01 0.00000000e+00 2.20687493e-01 2.45791554e-01 9.34373320e-01 0.00000000e+00 2.44793264e-01 4.67305731e-02 1.76940024e+00 0.00000000e+00 0.00000000e+00 0.00000000e+00 0.00000000e+00 
        </DataArray>
        <DataArray type="Float64" Name="p">
          -1.30689436e+03 -2.71620831e+03 -4.12552226e+03 -5.53483620e+03 -1.29569290e+03 -2.71896037e+03 -4.14222784e+03 -5.56549531e+03 -1.28449143e+03 -2.72171242e+03 -4.15893342e+03 -5.59615441e+03 -1.27328996e+03 -2.72446448e+03 -4.17563900e+03 -5.62681352e+03 
        </DataArray>
      </PointData>
    </Piece>
    <Piece NumberOfPoints="16" NumberOfCells="9">
      <Points>
        <DataArray type="Float64" NumberOfComponents="3" format="ascii">
          2.50000000e+00 0.00000000e+00 0.00000000e+00 
3.33333325e+00 0.00000000e+00 0.00000000e+00 
4.16666651e+00 0.00000000e+00 0.00000000e+00 
5.00000000e+00 0.00000000e+00 0.00000000e+00 
2.50000000e+00 3.33333343e-01 0.00000000e+00 
3.33333325e+00 3.33333343e-01 0.00000000e+00 
4.16666651e+00 3.33333343e-01 0.00000000e+00 
5.00000000e+00 3.33333343e-01 0.00000000e+00 
2.50000000e+00 6.66666687e-01 0.00000000e+00 
3.33333325e+00 6.66666687e-01 0.00000000e+00 
4.16666651e+00 6.66666687e-01 0.00000000e+00 
5.00000000e+00 6.66666687e-01 0.00000000e+00 
2.50000000e+00 1.00000000e+00 0.00000000e+00 
3.33333325e+00 1.00000000e+00 0.00000000e+00 
4.16666651e+00 1.00000000e+00 0.00000000e+00 
5.00000000e+00 1.00000000e+00 0.00000000e+00 

        </DataArray>
      </Points>
      <Cells>
        <DataArray type="Int32" Name="connectivity" format="ascii">
0 1 5 4
4 5 9 8
8 9 13 12
1 2 6 5
5 6 10 9
9 10 14 13
2 3 7 6
6 7 11 10
10 11 15 14

        </DataArray>
        <DataArray type="Int32" Name="offsets" format="ascii">
4 8 12 16 20 24 28 32 36 
        </DataArray>
        <DataArray type="UInt8" Name="types" format="ascii">
9 9 9 9 9 9 9 9 9 
        </DataArray>
      </Cells>
      <PointData>
        <DataArray type="Float64" Name="u">
          0.00000000e+00 0.00000000e+00 0.00000000e+00 0.00000000e+00 0.00000000e+00 -3.09652374e+00 -5.17489635e+00 -9.30200490e+00 0.00000000e+00 -5.36970200e+00 -9.21701268e+00 -1.55858530e+01 0.00000000e+00 -6.86182314e+00 -1.16205753e+01 -1.85671377e+01 
        </DataArray>
        <DataArray type="Float64" Name="v">
          0.00000000e+00 0.00000000e+00 0.00000000e+00 0.00000000e+00 0.00000000e+00 9.05337448e-01 9.69248171e-01 6.53880561e-01 0.00000000e+00 2.66904077e+00 2.65836691e+00 1.73811605e+00 0.00000000e+00 5.83044102e+00 5.43434668e+00 3.49792140e+00 
        </DataArray>
        <DataArray type="Float64" Name="p">
          -5.18692221e+03 -5.13222507e+03 -5.07752792e+03 -5.02283077e+03 -5.17276744e+03 -5.11810165e+03 -5.06343586e+03 -5.00877008e+03 -5.15861266e+03 -5.10397823e+03 -5.04934380e+03 -4.99470938e+03 -5.14445788e+03 -5.08985481e+03 -5.03525175e+03 -4.98064868e+03 
        </DataArray>
      </PointData>
    </Piece>
    <Piece NumberOfPoints="16" NumberOfCells="9">
      <Points>
        <DataArray type="Float64" NumberOfComponents="3" format="ascii">
          2.50000000e+00 1.00000000e+00 0.00000000e+00 
3.33333325e+00 1.00000000e+00 0.00000000e+00 
4.16666651e+00 1.00000000e+00 0.00000000e+00 
5.00000000e+00 1.00000000e+00 0.00000000e+00 
2.50000000e+00 1.33333337e+00 0.00000000e+00 
3.33333325e+00 1.33333337e+00 0.00000000e+00 
4.16666651e+00 1.33333337e+00 0.00000000e+00 
5.00000000e+00 1.33333337e+00 0.00000000e+00 
2.50000000e+00 1.66666663e+00 0.00000000e+00 
3.33333325e+00 1.66666663e+00 0.00000000e+00 
4.16666651e+00 1.66666663e+00 0.00000000e+00 
5.00000000e+00 1.66666663e+00 0.00000000e+00 
2.50000000e+00 2.00000000e+00 0.00000000e+00 
3.33333325e+00 2.00000000e+00 0.00000000e+00 
4.16666651e+00 2.00000000e+00 0.00000000e+00 
5.00000000e+00 2.00000000e+00 0.00000000e+00 

        </DataArray>
      </Points>
      <Cells>
        <DataArray type="Int32" Name="connectivity" format="ascii">
0 1 5 4
4 5 9 8
8 9 13 12
1 2 6 5
5 6 10 9
9 10 14 13
2 3 7 6
6 7 11 10
10 11 15 14

        </DataArray>
        <DataArray type="Int32" Name="offsets" format="ascii">
4 8 12 16 20 24 28 32 36 
        </DataArray>
        <DataArray type="UInt8" Name="types" format="ascii">
9 9 9 9 9 9 9 9 9 
        </DataArray>
      </Cells>
      <PointData>
        <DataArray type="Float64" Name="u">
          0.00000000e+00 -6.86182314e+00 -1.16205753e+01 -1.85671377e+01 0.00000000e+00 -7.57567388e+00 -1.20345434e+01 -1.80605039e+01 0.00000000e+00 -7.26412814e+00 -1.00178357e+01 -1.34595700e+01 0.00000000e+00 -5.34026141e+00 -4.85695016e+00 -4.06331034e+00 
        </DataArray>
        <DataArray type="Float64" Name="v">
          0.00000000e+00 5.83044102e+00 5.43434668e+00 3.49792140e+00 0.00000000e+00 9.62308627e+00 8.23579937e+00 4.80469115e+00 0.00000000e+00 1.25285416e+01 1.01356364e+01 5.17645920e+00 0.00000000e+00 1.55171616e+01 1.11310781e+01 4.22383318e+00 
        </DataArray>
        <DataArray type="Float64" Name="p">
          -5.12818537e+03 -5.08350146e+03 -5.03881756e+03 -4.99413365e+03 -5.22631690e+03 -5.16501895e+03 -5.10372101e+03 -5.04242306e+03 -5.32444842e+03 -5.24653644e+03 -5.16862446e+03 -5.09071247e+03 -5.42257994e+03 -5.32805392e+03 -5.23352791e+03 -5.13900189e+03 
        </DataArray>
      </PointData>
    </Piece>
    <Piece NumberOfPoints="16" NumberOfCells="9">
      <Points>
        <DataArray type="Float64" NumberOfComponents="3" format="ascii">
          2.50000000e+00 2.00000000e+00 0.00000000e+00 
3.33333325e+00 2.00000000e+00 0.00000000e+00 
4.16666651e+00 2.00000000e+00 0.00000000e+00 
5.00000000e+00 2.00000000e+00 0.00000000e+00 
2.50000000e+00 2.33333325e+00 0.00000000e+00 
3.33333325e+00 2.33333325e+00 0.00000000e+00 
4.16666651e+00 2.33333325e+00 0.00000000e+00 
5.00000000e+00 2.33333325e+00 0.00000000e+00 
2.50000000e+00 2.66666675e+00 0.00000000e+00 
3.33333325e+00 2.66666675e+00 0.00000000e+00 
4.16666651e+00 2.66666675e+00 0.00000000e+00 
5.00000000e+00 2.66666675e+00 0.00000000e+00 
2.50000000e+00 3.00000000e+00 0.00000000e+00 
3.33333325e+00 3.00000000e+00 0.00000000e+00 
4.16666651e+00 3.00000000e+00 0.00000000e+00 
5.00000000e+00 3.00000000e+00 0.00000000e+00 

        </DataArray>
      </Points>
      <Cells>
        <DataArray type="Int32" Name="connectivity" format="ascii">
0 1 5 4
4 5 9 8
8 9 13 12
1 2 6 5
5 6 10 9
9 10 14 13
2 3 7 6
6 7 11 10
10 11 15 14

        </DataArray>
        <DataArray type="Int32" Name="offsets" format="ascii">
4 8 12 16 20 24 28 32 36 
        </DataArray>
        <DataArray type="UInt8" Name="types" format="ascii">
9 9 9 9 9 9 9 9 9 
        </DataArray>
      </Cells>
      <PointData>
        <DataArray type="Float64" Name="u">
          0.00000000e+00 -5.34026141e+00 -4.85695016e+00 -4.06331034e+00 0.00000000e+00 -5.40419471e-01 4.13869363e+00 1.24389454e+01 0.00000000e+00 1.27354172e+01 2.12716502e+01 3.61958674e+01 0.00000000e+00 4.69566770e+01 5.25578878e+01 6.97702256e+01 
        </DataArray>
        <DataArray type="Float64" Name="v">
          0.00000000e+00 1.55171616e+01 1.11310781e+01 4.22383318e+00 0.00000000e+00 1.69251982e+01 9.07923663e+00 9.75826805e-01 0.00000000e+00 1.33210684e+01 6.02794818e+00 -1.65985655e+00 0.00000000e+00 1.91209690e+00 -8.91452429e-01 -3.53792249e+00 
        </DataArray>
        <DataArray type="Float64" Name="p">
          -5.38369266e+03 -5.33883541e+03 -5.29397816e+03 -5.24912090e+03 -5.73440040e+03 -5.51256629e+03 -5.29073218e+03 -5.06889808e+03 -6.08510813e+03 -5.68629717e+03 -5.28748621e+03 -4.88867525e+03 -6.43581587e+03 -5.86002805e+03 -5.28424024e+03 -4.70845242e+03 
        </DataArray>
      </PointData>
    </Piece>
    <Piece NumberOfPoints="16" NumberOfCells="9">
      <Points>
        <DataArray type="Float64" NumberOfComponents="3" format="ascii">
          2.50000000e+00 3.00000000e+00 0.00000000e+00 
3.33333325e+00 3.00000000e+00 0.00000000e+00 
4.16666651e+00 3.00000000e+00 0.00000000e+00 
5.00000000e+00 3.00000000e+00 0.00000000e+00 
2.50000000e+00 3.33333325e+00 0.00000000e+00 
3.33333325e+00 3.33333325e+00 0.00000000e+00 
4.16666651e+00 3.33333325e+00 0.00000000e+00 
5.00000000e+00 3.33333325e+00 0.00000000e+00 
2.50000000e+00 3.66666675e+00 0.00000000e+00 
3.33333325e+00 3.66666675e+00 0.00000000e+00 
4.16666651e+00 3.66666675e+00 0.00000000e+00 
5.00000000e+00 3.66666675e+00 0.00000000e+00 
2.50000000e+00 4.00000000e+00 0.00000000e+00 
3.33333325e+00 4.00000000e+00 0.00000000e+00 
4.16666651e+00 4.00000000e+00 0.00000000e+00 
5.00000000e+00 4.00000000e+00 0.00000000e+00 

        </DataArray>
      </Points>
      <Cells>
        <DataArray type="Int32" Name="connectivity" format="ascii">
0 1 5 4
4 5 9 8
8 9 13 12
1 2 6 5
5 6 10 9
9 10 14 13
2 3 7 6
6 7 11 10
10 11 15 14

        </DataArray>
        <DataArray type="Int32" Name="offsets" format="ascii">
4 8 12 16 20 24 28 32 36 
        </DataArray>
        <DataArray type="UInt8" Name="types" format="ascii">
9 9 9 9 9 9 9 9 9 
        </DataArray>
      </Cells>
      <PointData>
        <DataArray type="Float64" Name="u">
          0.00000000e+00 4.69566770e+01 5.25578878e+01 6.97702256e+01 9.11677941e+01 9.61671187e+01 1.00773084e+02 1.06417647e+02 1.55834055e+02 1.51128611e+02 1.50935934e+02 1.48099668e+02 1.98707051e+02 1.91364525e+02 1.89880593e+02 1.81869728e+02 
        </DataArray>
        <DataArray type="Float64" Name="v">
          0.00000000e+00 1.91209690e+00 -8.91452429e-01 -3.53792249e+00 -1.76940024e+00 -6.84141784e+00 -5.29267677e+00 -2.59070301e+00 -9.34373320e-01 -7.15772280e+00 -6.92517954e+00 -3.13627641e+00 -8.65963279e-01 -4.66918991e+00 -4.40694598e+00 -2.57333910e+00 
        </DataArray>
        <DataArray type="Float64" Name="p">
          -6.49705074e+03 -5.82905572e+03 -5.16106069e+03 -4.49306566e+03 -5.98317930e+03 -5.58089574e+03 -5.17861218e+03 -4.77632862e+03 -5.46930785e+03 -5.33273576e+03 -5.19616367e+03 -5.05959157e+03 -4.95543641e+03 -5.08457578e+03 -5.21371516e+03 -5.34285453e+03 
        </DataArray>
      </PointData>
    </Piece>
    <Piece NumberOfPoints="16" NumberOfCells="9">
      <Points>
        <DataArray type="Float64" NumberOfComponents="3" format="ascii">
          2.50000000e+00 4.00000000e+00 0.00000000e+00 
3.33333325e+00 4.00000000e+00 0.00000000e+00 
4.16666651e+00 4.00000000e+00 0.00000000e+00 
5.00000000e+00 4.00000000e+00 0.00000000e+00 
2.50000000e+00 4.33333349e+00 0.00000000e+00 
3.33333325e+00 4.33333349e+00 0.00000000e+00 
4.16666651e+00 4.33333349e+00 0.00000000e+00 
5.00000000e+00 4.33333349e+00 0.00000000e+00 
2.50000000e+00 4.66666651e+00 0.00000000e+00 
3.33333325e+00 4.66666651e+00 0.00000000e+00 
4.16666651e+00 4.66666651e+00 0.00000000e+00 
5.00000000e+00 4.66666651e+00 0.00000000e+00 
2.50000000e+00 5.00000000e+00 0.00000000e+00 
3.33333325e+00 5.00000000e+00 0.00000000e+00 
4.16666651e+00 5.00000000e+00 0.00000000e+00 
5.00000000e+00 5.00000000e+00 0.00000000e+00 

        </DataArray>
      </Points>
      <Cells>
        <DataArray type="Int32" Name="connectivity" format="ascii">
0 1 5 4
4 5 9 8
8 9 13 12
1 2 6 5
5 6 10 9
9 10 14 13
2 3 7 6
6 7 11 10
10 11 15 14

        </DataArray>
        <DataArray type="Int32" Name="offsets" format="ascii">
4 8 12 16 20 24 28 32 36 
        </DataArray>
        <DataArray type="UInt8" Name="types" format="ascii">
9 9 9 9 9 9 9 9 9 
        </DataArray>
      </Cells>
      <PointData>
        <DataArray type="Float64" Name="u">
          1.98707051e+02 1.91364525e+02 1.89880593e+02 1.81869728e+02 2.20526784e+02 2.12182719e+02 2.09570792e+02 2.00582800e+02 2.20526784e+02 2.12182719e+02 2.09570792e+02 2.00582800e+02 1.98707051e+02 1.91364525e+02 1.89880593e+02 1.81869728e+02 
        </DataArray>
        <DataArray type="Float64" Name="v">
          -8.65963279e-01 -4.66918991e+00 -4.40694598e+00 -2.57333910e+00 3.40339776e-02 -5.89607887e-01 -1.32009453e+00 -1.21083704e+00 -3.40339776e-02 5.89607887e-01 1.32009453e+00 1.21083704e+00 8.65963279e-01 4.66918991e+00 4.40694598e+00 2.57333910e+00 
        </DataArray>
        <DataArray type="Float64" Name="p">
          -4.78296211e+03 -5.00298393e+03 -5.22300574e+03 -5.44302755e+03 -4.78296211e+03 -5.00298393e+03 -5.22300574e+03 -5.44302755e+03 -4.78296211e+03 -5.00298393e+03 -5.22300574e+03 -5.44302755e+03 -4.78296211e+03 -5.00298393e+03 -5.22300574e+03 -5.44302755e+03 
        </DataArray>
      </PointData>
    </Piece>
    <Piece NumberOfPoints="16" NumberOfCells="9">
      <Points>
        <DataArray type="Float64" NumberOfComponents="3" format="ascii">
          2.50000000e+00 5.00000000e+00 0.00000000e+00 
3.33333325e+00 5.00000000e+00 0.00000000e+00 
4.16666651e+00 5.00000000e+00 0.00000000e+00 
5.00000000e+00 5.00000000e+00 0.00000000e+00 
2.50000000e+00 5.33333349e+00 0.00000000e+00 
3.33333325e+00 5.33333349e+00 0.00000000e+00 
4.16666651e+00 5.33333349e+00 0.00000000e+00 
5.00000000e+00 5.33333349e+00 0.00000000e+00 
2.50000000e+00 5.66666651e+00 0.00000000e+00 
3.33333325e+00 5.66666651e+00 0.00000000e+00 
4.16666651e+00 5.66666651e+00 0.00000000e+00 
5.00000000e+00 5.66666651e+00 0.00000000e+00 
2.50000000e+00 6.00000000e+00 0.00000000e+00 
3.33333325e+00 6.00000000e+00 0.00000000e+00 
4.16666651e+00 6.00000000e+00 0.00000000e+00 
5.00000000e+00 6.00000000e+00 0.00000000e+00 

        </DataArray>
      </Points>
      <Cells>
        <DataArray type="Int32" Name="connectivity" format="ascii">
0 1 5 4
4 5 9 8
8 9 13 12
1 2 6 5
5 6 10 9
9 10 14 13
2 3 7 6
6 7 11 10
10 11 15 14

        </DataArray>
        <DataArray type="Int32" Name="offsets" format="ascii">
4 8 12 16 20 24 28 32 36 
        </DataArray>
        <DataArray type="UInt8" Name="types" format="ascii">
9 9 9 9 9 9 9 9 9 
        </DataArray>
      </Cells>
      <PointData>
        <DataArray type="Float64" Name="u">
          1.98707051e+02 1.91364525e+02 1.89880593e+02 1.81869728e+02 1.55834055e+02 1.51128611e+02 1.50935934e+02 1.48099668e+02 9.11677941e+01 9.61671187e+01 1.00773084e+02 1.06417647e+02 0.00000000e+00 4.69566770e+01 5.25578878e+01 6.97702256e+01 
        </DataArray>
        <DataArray type="Float64" Name="v">
          8.65963279e-01 4.66918991e+00 4.40694598e+00 2.57333910e+00 9.34373320e-01 7.15772280e+00 6.92517954e+00 3.13627641e+00 1.76940024e+00 6.84141784e+00 5.29267677e+00 2.59070301e+00 0.00000000e+00 -1.91209690e+00 8.91452429e-01 3.53792249e+00 
        </DataArray>
        <DataArray type="Float64" Name="p">
          -4.95543641e+03 -5.08457578e+03 -5.21371516e+03 -5.34285453e+03 -5.46930785e+03 -5.33273576e+03 -5.19616367e+03 -5.05959157e+03 -5.98317930e+03 -5.58089574e+03 -5.17861218e+03 -4.77632862e+03 -6.49705074e+03 -5.82905572e+03 -5.16106069e+03 -4.49306566e+03 
        </DataArray>
      </PointData>
    </Piece>
    <Piece NumberOfPoints="16" NumberOfCells="9">
      <Points>
        <DataArray type="Float64" NumberOfComponents="3" format="ascii">
          2.50000000e+00 6.00000000e+00 0.00000000e+00 
3.33333325e+00 6.00000000e+00 0.00000000e+00 
4.16666651e+00 6.00000000e+00 0.00000000e+00 
5.00000000e+00 6.00000000e+00 0.00000000e+00 
2.50000000e+00 6.33333349e+00 0.00000000e+00 
3.33333325e+00 6.33333349e+00 0.00000000e+00 
4.16666651e+00 6.33333349e+00 0.00000000e+00 
5.00000000e+00 6.33333349e+00 0.00000000e+00 
2.50000000e+00 6.66666651e+00 0.00000000e+00 
3.33333325e+00 6.66666651e+00 0.00000000e+00 
4.16666651e+00 6.66666651e+00 0.00000000e+00 
5.00000000e+00 6.66666651e+00 0.00000000e+00 
2.50000000e+00 7.00000000e+00 0.00000000e+00 
3.33333325e+00 7.00000000e+00 0.00000000e+00 
4.16666651e+00 7.00000000e+00 0.00000000e+00 
5.00000000e+00 7.00000000e+00 0.00000000e+00 

        </DataArray>
      </Points>
      <Cells>
        <DataArray type="Int32" Name="connectivity" format="ascii">
0 1 5 4
4 5 9 8
8 9 13 12
1 2 6 5
5 6 10 9
9 10 14 13
2 3 7 6
6 7 11 10
10 11 15 14

        </DataArray>
        <DataArray type="Int32" Name="offsets" format="ascii">
4 8 12 16 20 24 28 32 36 
        </DataArray>
        <DataArray type="UInt8" Name="types" format="ascii">
9 9 9 9 9 9 9 9 9 
        </DataArray>
      </Cells>
      <PointData>
        <DataArray type="Float64" Name="u">
          0.00000000e+00 4.69566770e+01 5.25578878e+01 6.97702256e+01 0.00000000e+00 1.27354172e+01 2.12716502e+01 3.61958674e+01 0.00000000e+00 -5.40419471e-01 4.13869363e+00 1.24389454e+01 0.00000000e+00 -5.34026141e+00 -4.85695016e+00 -4.06331034e+00 
        </DataArray>
        <DataArray type="Float64" Name="v">
          0.00000000e+00 -1.91209690e+00 8.91452429e-01 3.53792249e+00 0.00000000e+00 -1.33210684e+01 -6.02794818e+00 1.65985655e+00 0.00000000e+00 -1.69251982e+01 -9.07923663e+00 -9.75826805e-01 0.00000000e+00 -1.55171616e+01 -1.11310781e+01 -4.22383318e+00 
        </DataArray>
        <DataArray type="Float64" Name="p">
          -6.43581587e+03 -5.86002805e+03 -5.28424024e+03 -4.70845242e+03 -6.08510813e+03 -5.68629717e+03 -5.28748621e+03 -4.88867525e+03 -5.73440040e+03 -5.51256629e+03 -5.29073218e+03 -5.06889808e+03 -5.38369266e+03 -5.33883541e+03 -5.29397816e+03 -5.24912090e+03 
        </DataArray>
      </PointData>
    </Piece>
    <Piece NumberOfPoints="16" NumberOfCells="9">
      <Points>
        <DataArray type="Float64" NumberOfComponents="3" format="ascii">
          2.50000000e+00 7.00000000e+00 0.00000000e+00 
3.33333325e+00 7.00000000e+00 0.00000000e+00 
4.16666651e+00 7.00000000e+00 0.00000000e+00 
5.00000000e+00 7.00000000e+00 0.00000000e+00 
2.50000000e+00 7.33333349e+00 0.00000000e+00 
3.33333325e+00 7.33333349e+00 0.00000000e+00 
4.16666651e+00 7.33333349e+00 0.00000000e+00 
5.00000000e+00 7.33333349e+00 0.00000000e+00 
2.50000000e+00 7.66666651e+00 0.00000000e+00 
3.33333325e+00 7.66666651e+00 0.00000000e+00 
4.16666651e+00 7.66666651e+00 0.00000000e+00 
5.00000000e+00 7.66666651e+00 0.00000000e+00 
2.50000000e+00 8.00000000e+00 0.00000000e+00 
3.33333325e+00 8.00000000e+00 0.00000000e+00 
4.16666651e+00 8.00000000e+00 0.00000000e+00 
5.00000000e+00 8.00000000e+00 0.00000000e+00 

        </DataArray>
      </Points>
      <Cells>
        <DataArray type="Int32" Name="connectivity" format="ascii">
0 1 5 4
4 5 9 8
8 9 13 12
1 2 6 5
5 6 10 9
9 10 14 13
2 3 7 6
6 7 11 10
10 11 15 14

        </DataArray>
        <DataArray type="Int32" Name="offsets" format="ascii">
4 8 12 16 20 24 28 32 36 
        </DataArray>
        <DataArray type="UInt8" Name="types" format="ascii">
9 9 9 9 9 9 9 9 9 
        </DataArray>
      </Cells>
      <PointData>
        <DataArray type="Float64" Name="u">
          0.00000000e+00 -5.34026141e+00 -4.85695016e+00 -4.06331034e+00 0.00000000e+00 -7.26412814e+00 -1.00178357e+01 -1.34595700e+01 0.00000000e+00 -7.57567388e+00 -1.20345434e+01 -1.80605039e+01 0.00000000e+00 -6.86182314e+00 -1.16205753e+01 -1.85671377e+01 
        </DataArray>
        <DataArray type="Float64" Name="v">
          0.00000000e+00 -1.55171616e+01 -1.11310781e+01 -4.22383318e+00 0.00000000e+00 -1.25285416e+01 -1.01356364e+01 -5.17645920e+00 0.00000000e+00 -9.62308627e+00 -8.23579937e+00 -4.80469115e+00 0.00000000e+00 -5.83044102e+00 -5.43434668e+00 -3.49792140e+00 
        </DataArray>
        <DataArray type="Float64" Name="p">
          -5.42257994e+03 -5.32805392e+03 -5.23352791e+03 -5.13900189e+03 -5.32444842e+03 -5.24653644e+03 -5.16862446e+03 -5.09071247e+03 -5.22631690e+03 -5.16501895e+03 -5.10372101e+03 -5.04242306e+03 -5.12818537e+03 -5.08350146e+03 -5.03881756e+03 -4.99413365e+03 
        </DataArray>
      </PointData>
    </Piece>
    <Piece NumberOfPoints="16" NumberOfCells="9">
      <Points>
        <DataArray type="Float64" NumberOfComponents="3" format="ascii">
          2.50000000e+00 8.00000000e+00 0.00000000e+00 
3.33333325e+00 8.00000000e+00 0.00000000e+00 
4.16666651e+00 8.00000000e+00 0.00000000e+00 
5.00000000e+00 8.00000000e+00 0.00000000e+00 
2.50000000e+00 8.33333302e+00 0.00000000e+00 
3.33333325e+00 8.33333302e+00 0.00000000e+00 
4.16666651e+00 8.33333302e+00 0.00000000e+00 
5.00000000e+00 8.33333302e+00 0.00000000e+00 
2.50000000e+00 8.66666698e+00 0.00000000e+00 
3.33333325e+00 8.66666698e+00 0.00000000e+00 
4.16666651e+00 8.66666698e+00 0.00000000e+00 
5.00000000e+00 8.66666698e+00 0.00000000e+00 
2.50000000e+00 9.00000000e+00 0.00000000e+00 
3.33333325e+00 9.00000000e+00 0.00000000e+00 
4.16666651e+00 9.00000000e+00 0.00000000e+00 
5.00000000e+00 9.00000000e+00 0.00000000e+00 

        </DataArray>
      </Points>
      <Cells>
        <DataArray type="Int32" Name="connectivity" format="ascii">
0 1 5 4
4 5 9 8
8 9 13 12
1 2 6 5
5 6 10 9
9 10 14 13
2 3 7 6
6 7 11 10
10 11 15 14

        </DataArray>
        <DataArray type="Int32" Name="offsets" format="ascii">
4 8 12 16 20 24 28 32 36 
        </DataArray>
        <DataArray type="UInt8" Name="types" format="ascii">
9 9 9 9 9 9 9 9 9 
        </DataArray>
      </Cells>
      <PointData>
        <DataArray type="Float64" Name="u">
          0.00000000e+00 -6.86182314e+00 -1.16205753e+01 -1.85671377e+01 0.00000000e+00 -5.36970200e+00 -9.21701268e+00 -1.55858530e+01 0.00000000e+00 -3.09652374e+00 -5.17489635e+00 -9.30200490e+00 0.00000000e+00 0.00000000e+00 0.00000000e+00 0.00000000e+00 
        </DataArray>
        <DataArray type="Float64" Name="v">
          0.00000000e+00 -5.83044102e+00 -5.43434668e+00 -3.49792140e+00 0.00000000e+00 -2.66904077e+00 -2.65836691e+00 -1.73811605e+00 0.00000000e+00 -9.05337448e-01 -9.69248171e-01 -6.53880561e-01 0.00000000e+00 0.00000000e+00 0.00000000e+00 0.00000000e+00 
        </DataArray>
        <DataArray type="Float64" Name="p">
          -5.14445788e+03 -5.08985481e+03 -5.03525175e+03 -4.98064868e+03 -5.15861266e+03 -5.10397823e+03 -5.04934380e+03 -4.99470938e+03 -5.17276744e+03 -5.11810165e+03 -5.06343586e+03 -5.00877008e+03 -5.18692221e+03 -5.13222507e+03 -5.07752792e+03 -5.02283077e+03 
        </DataArray>
      </PointData>
    </Piece>
    <Piece NumberOfPoints="16" NumberOfCells="9">
      <Points>
        <DataArray type="Float64" NumberOfComponents="3" format="ascii">
          5.00000000e+00 0.00000000e+00 0.00000000e+00 
5.83333349e+00 0.00000000e+00 0.00000000e+00 
6.66666651e+00 0.00000000e+00 0.00000000e+00 
7.50000000e+00 0.00000000e+00 0.00000000e+00 
5.00000000e+00 3.33333343e-01 0.00000000e+00 
5.83333349e+00 3.33333343e-01 0.00000000e+00 
6.66666651e+00 3.33333343e-01 0.00000000e+00 
7.50000000e+00 3.33333343e-01 0.00000000e+00 
5.00000000e+00 6.66666687e-01 0.00000000e+00 
5.83333349e+00 6.66666687e-01 0.00000000e+00 
6.66666651e+00 6.66666687e-01 0.00000000e+00 
7.50000000e+00 6.66666687e-01 0.00000000e+00 
5.00000000e+00 1.00000000e+00 0.00000000e+00 
5.83333349e+00 1.00000000e+00 0.00000000e+00 
6.66666651e+00 1.00000000e+00 0.00000000e+00 
7.50000000e+00 1.00000000e+00 0.00000000e+00 

        </DataArray>
      </Points>
      <Cells>
        <DataArray type="Int32" Name="connectivity" format="ascii">
0 1 5 4
4 5 9 8
8 9 13 12
1 2 6 5
5 6 10 9
9 10 14 13
2 3 7 6
6 7 11 10
10 11 15 14

        </DataArray>
        <DataArray type="Int32" Name="offsets" format="ascii">
4 8 12 16 20 24 28 32 36 
        </DataArray>
        <DataArray type="UInt8" Name="types" format="ascii">
9 9 9 9 9 9 9 9 9 
        </DataArray>
      </Cells>
      <PointData>
        <DataArray type="Float64" Name="u">