<?xml version="1.0"?>
<VTKFile type="UnstructuredGrid" version="0.1" byte_order="LittleEndian">
  <UnstructuredGrid>
    <Piece NumberOfPoints="16" NumberOfCells="9">
      <Points>
        <DataArray type="Float64" NumberOfComponents="3" format="ascii">
          0.00000000e+00 3.00000000e+00 0.00000000e+00 
8.33333313e-01 3.00000000e+00 0.00000000e+00 
1.66666663e+00 3.00000000e+00 0.00000000e+00 
2.50000000e+00 3.00000000e+00 0.00000000e+00 
0.00000000e+00 3.33333325e+00 0.00000000e+00 
8.33333313e-01 3.33333325e+00 0.00000000e+00 
1.66666663e+00 3.33333325e+00 0.00000000e+00 
2.50000000e+00 3.33333325e+00 0.00000000e+00 
0.00000000e+00 3.66666675e+00 0.00000000e+00 
8.33333313e-01 3.66666675e+00 0.00000000e+00 
1.66666663e+00 3.66666675e+00 0.00000000e+00 
2.50000000e+00 3.66666675e+00 0.00000000e+00 
0.00000000e+00 4.00000000e+00 0.00000000e+00 
8.33333313e-01 4.00000000e+00 0.00000000e+00 
1.66666663e+00 4.00000000e+00 0.00000000e+00 
2.50000000e+00 4.00000000e+00 0.00000000e+00 

        </DataArray>
      </Points>
      <Cells>
        <DataArray type="Int32" Name="connectivity" format="ascii">
0 1 5 4
4 5 9 8
8 9 13 12
1 2 6 5
5 6 10 9
9 10 14 13
2 3 7 6
6 7 11 10
10 11 15 14

        </DataArray>
        <DataArray type="Int32" Name="offsets" format="ascii">
4 8 12 16 20 24 28 32 36 
        </DataArray>
        <DataArray type="UInt8" Name="types" format="ascii">
9 9 9 9 9 9 9 9 9 
        </DataArray>
      </Cells>
      <PointData>
        <DataArray type="Float64" Name="u">
          0.00000000e+00 0.00000000e+00 0.00000000e+00 0.00000000e+00 8.88888889e+01 8.79977460e+01 8.82850497e+01 8.56574425e+01 1.55555556e+02 1.53896041e+02 1.54850645e+02 1.51062702e+02 2.00000000e+02 1.97993456e+02 1.99261394e+02 1.95550649e+02 
        </DataArray>
        <DataArray type="Float64" Name="v">
          0.00000000e+00 0.00000000e+00 0.00000000e+00 0.00000000e+00 0.00000000e+00 2.34387700e-01 8.45804107e-01 -7.28610309e-02 0.00000000e+00 2.69079921e-01 9.46534270e-01 1.28320193e+00 0.00000000e+00 8.31328692e-01 1.96887067e+00 2.64830242e+00 
        </DataArray>
        <DataArray type="Float64" Name="p">
          -1.20679742e+03 -2.55715361e+03 -3.90750981e+03 -5.25786600e+03 -1.23226240e+03 -2.57946823e+03 -3.92667407e+03 -5.27387990e+03 -1.25772738e+03 -2.60178285e+03 -3.94583833e+03 -5.28989380e+03 -1.28319236e+03 -2.62409748e+03 -3.96500259e+03 -5.30590770e+03 
        </DataArray>
      </PointData>
    </Piece>
    <Piece NumberOfPoints="16" NumberOfCells="9">
      <Points>
        <DataArray type="Float64" NumberOfComponents="3" format="ascii">
          0.00000000e+00 4.00000000e+00 0.00000000e+00 
8.33333313e-01 4.00000000e+00 0.00000000e+00 
1.66666663e+00 4.00000000e+00 0.00000000e+00 
2.50000000e+00 4.00000000e+00 0.00000000e+00 
0.00000000e+00 4.33333349e+00 0.00000000e+00 
8.33333313e-01 4.33333349e+00 0.00000000e+00 
1.66666663e+00 4.33333349e+00 0.00000000e+00 
2.50000000e+00 4.33333349e+00 0.00000000e+00 
0.00000000e+00 4.66666651e+00 0.00000000e+00 
8.33333313e-01 4.66666651e+00 0.00000000e+00 
1.66666663e+00 4.66666651e+00 0.00000000e+00 
2.50000000e+00 4.66666651e+00 0.00000000e+00 
0.00000000e+00 5.00000000e+00 0.00000000e+00 
8.33333313e-01 5.00000000e+00 0.00000000e+00 
1.66666663e+00 5.00000000e+00 0.00000000e+00 
2.50000000e+00 5.00000000e+00 0.00000000e+00 

        </DataArray>
      </Points>
      <Cells>
        <DataArray type="Int32" Name="connectivity" format="ascii">
0 1 5 4
4 5 9 8
8 9 13 12
1 2 6 5
5 6 10 9
9 10 14 13
2 3 7 6
6 7 11 10
10 11 15 14

        </DataArray>
        <DataArray type="Int32" Name="offsets" format="ascii">
4 8 12 16 20 24 28 32 36 
        </DataArray>
        <DataArray type="UInt8" Name="types" format="ascii">
9 9 9 9 9 9 9 9 9 
        </DataArray>
      </Cells>
      <PointData>
        <DataArray type="Float64" Name="u">
          2.00000000e+02 1.97993456e+02 1.99261394e+02 1.95550649e+02 2.22222222e+02 2.20610074e+02 2.21772780e+02 2.19428505e+02 2.22222222e+02 2.21325019e+02 2.22583397e+02 2.21664983e+02 2.00000000e+02 1.99987563e+02 2.01427602e+02 2.01924906e+02 
        </DataArray>
        <DataArray type="Float64" Name="v">
          0.00000000e+00 8.31328692e-01 1.96887067e+00 2.64830242e+00 0.00000000e+00 1.36679719e+00 2.51261235e+00 3.92868633e+00 0.00000000e+00 1.38959827e+00 2.72383326e+00 3.86157875e+00 0.00000000e+00 1.44512474e+00 2.46342169e+00 4.35418677e+00 
        </DataArray>
        <DataArray type="Float64" Name="p">
          -1.27324391e+03 -2.62962442e+03 -3.98600492e+03 -5.34238542e+03 -1.39132832e+03 -2.74778669e+03 -4.10424507e+03 -5.46070345e+03 -1.50941272e+03 -2.86594897e+03 -4.22248522e+03 -5.57902147e+03 -1.62749712e+03 -2.98411125e+03 -4.34072537e+03 -5.69733950e+03 
        </DataArray>
      </PointData>
    </Piece>
    <Piece NumberOfPoints="16" NumberOfCells="9">
      <Points>
        <DataArray type="Float64" NumberOfComponents="3" format="ascii">
          0.00000000e+00 5.00000000e+00 0.00000000e+00 
8.33333313e-01 5.00000000e+00 0.00000000e+00 
1.66666663e+00 5.00000000e+00 0.00000000e+00 
2.50000000e+00 5.00000000e+00 0.00000000e+00 
0.00000000e+00 5.33333349e+00 0.00000000e+00 
8.33333313e-01 5.33333349e+00 0.00000000e+00 
1.66666663e+00 5.33333349e+00 0.00000000e+00 
2.50000000e+00 5.33333349e+00 0.00000000e+00 
0.00000000e+00 5.66666651e+00 0.00000000e+00 
8.33333313e-01 5.66666651e+00 0.00000000e+00 
1.66666663e+00 5.66666651e+00 0.00000000e+00 
2.50000000e+00 5.66666651e+00 0.00000000e+00 
0.00000000e+00 6.00000000e+00 0.00000000e+00 
8.33333313e-01 6.00000000e+00 0.00000000e+00 
1.66666663e+00 6.00000000e+00 0.00000000e+00 
2.50000000e+00 6.00000000e+00 0.00000000e+00 

        </DataArray>
      </Points>
      <Cells>
        <DataArray type="Int32" Name="connectivity" format="ascii">
0 1 5 4
4 5 9 8
8 9 13 12
1 2 6 5
5 6 10 9
9 10 14 13
2 3 7 6
6 7 11 10
10 11 15 14

        </DataArray>
        <DataArray type="Int32" Name="offsets" format="ascii">
4 8 12 16 20 24 28 32 36 
        </DataArray>
        <DataArray type="UInt8" Name="types" format="ascii">
9 9 9 9 9 9 9 9 9 
        </DataArray>
      </Cells>
      <PointData>
        <DataArray type="Float64" Name="u">
          2.00000000e+02 1.99987563e+02 2.01427602e+02 2.01924906e+02 1.55555556e+02 1.56875657e+02 1.57656919e+02 1.60558227e+02 8.88888889e+01 9.10004902e+01 9.06995058e+01 9.66444377e+01 0.00000000e+00 0.00000000e+00 0.00000000e+00 0.00000000e+00 
        </DataArray>
        <DataArray type="Float64" Name="v">
          0.00000000e+00 1.44512474e+00 2.46342169e+00 4.35418677e+00 0.00000000e+00 6.97348497e-01 1.45898025e+00 3.06598143e+00 0.00000000e+00 7.31521497e-01 9.51810160e-01 3.38477401e+00 0.00000000e+00 0.00000000e+00 0.00000000e+00 0.00000000e+00 
        </DataArray>
        <DataArray type="Float64" Name="p">
          -1.66142456e+03 -3.01760437e+03 -4.37378417e+03 -5.72996397e+03 -1.66703202e+03 -3.04627343e+03 -4.42551485e+03 -5.80475626e+03 -1.67263947e+03 -3.07494250e+03 -4.47724553e+03 -5.87954855e+03 -1.67824692e+03 -3.10361156e+03 -4.52897620e+03 -5.95434084e+03 
        </DataArray>
      </PointData>
    </Piece>
    <Piece NumberOfPoints="16" NumberOfCells="9">
      <Points>
        <DataArray type="Float64" NumberOfComponents="3" format="ascii">
          2.50000000e+00 0.00000000e+00 0.00000000e+00 
3.33333325e+00 0.00000000e+00 0.00000000e+00 
4.16666651e+00 0.00000000e+00 0.00000000e+00 
5.00000000e+00 0.00000000e+00 0.00000000e+00 
2.50000000e+00 3.33333343e-01 0.00000000e+00 
3.33333325e+00 3.33333343e-01 0.00000000e+00 
4.16666651e+00 3.33333343e-01 0.00000000e+00 
5.00000000e+00 3.33333343e-01 0.00000000e+00 
2.50000000e+00 6.66666687e-01 0.00000000e+00 
3.33333325e+00 6.66666687e-01 0.00000000e+00 
4.16666651e+00 6.66666687e-01 0.00000000e+00 
5.00000000e+00 6.66666687e-01 0.00000000e+00 
2.50000000e+00 1.00000000e+00 0.00000000e+00 
3.33333325e+00 1.00000000e+00 0.00000000e+00 
4.16666651e+00 1.00000000e+00 0.00000000e+00 
5.00000000e+00 1.00000000e+00 0.00000000e+00 

        </DataArray>
      </Points>
      <Cells>
        <DataArray type="Int32" Name="connectivity" format="ascii">
0 1 5 4
4 5 9 8
8 9 13 12
1 2 6 5
5 6 10 9
9 10 14 13
2 3 7 6
6 7 11 10
10 11 15 14

        </DataArray>
        <DataArray type="Int32" Name="offsets" format="ascii">
4 8 12 16 20 24 28 32 36 
        </DataArray>
        <DataArray type="UInt8" Name="types" format="ascii">
9 9 9 9 9 9 9 9 9 
        </DataArray>
      </Cells>
      <PointData>
        <DataArray type="Float64" Name="u">
          0.00000000e+00 0.00000000e+00 0.00000000e+00 0.00000000e+00 0.00000000e+00 -2.69638959e+00 -4.60118768e+00 -8.17677204e+00 0.00000000e+00 -4.74692725e+00 -8.31511565e+00 -1.38969283e+01 0.00000000e+00 -6.18397460e+00 -1.07215348e+01 -1.70222446e+01 
        </DataArray>
        <DataArray type="Float64" Name="v">
          0.00000000e+00 0.00000000e+00 0.00000000e+00 0.00000000e+00 0.00000000e+00 7.90328378e-01 8.47824667e-01 5.39231172e-01 0.00000000e+00 2.37256669e+00 2.35690710e+00 1.50628757e+00 0.00000000e+00 5.22646860e+00 4.83620233e+00 3.10932541e+00 
        </DataArray>
        <DataArray type="Float64" Name="p">
          -4.64171806e+03 -4.60081299e+03 -4.55990792e+03 -4.51900285e+03 -4.62893314e+03 -4.58812154e+03 -4.54730994e+03 -4.50649834e+03 -4.61614822e+03 -4.57543009e+03 -4.53471196e+03 -4.49399383e+03 -4.60336330e+03 -4.56273864e+03 -4.52211398e+03 -4.48148932e+03 
        </DataArray>
      </PointData>
    </Piece>
    <Piece NumberOfPoints="16" NumberOfCells="9">
      <Points>
        <DataArray type="Float64" NumberOfComponents="3" format="ascii">
          2.50000000e+00 1.00000000e+00 0.00000000e+00 
3.33333325e+00 1.00000000e+00 0.00000000e+00 
4.16666651e+00 1.00000000e+00 0.00000000e+00 
5.00000000e+00 1.00000000e+00 0.00000000e+00 
2.50000000e+00 1.33333337e+00 0.00000000e+00 
3.33333325e+00 1.33333337e+00 0.00000000e+00 
4.16666651e+00 1.33333337e+00 0.00000000e+00 
5.00000000e+00 1.33333337e+00 0.00000000e+00 
2.50000000e+00 1.66666663e+00 0.00000000e+00 
3.33333325e+00 1.66666663e+00 0.00000000e+00 
4.16666651e+00 1.66666663e+00 0.00000000e+00 
5.00000000e+00 1.66666663e+00 0.00000000e+00 
2.50000000e+00 2.00000000e+00 0.00000000e+00 
3.33333325e+00 2.00000000e+00 0.00000000e+00 
4.16666651e+00 2.00000000e+00 0.00000000e+00 
5.00000000e+00 2.00000000e+00 0.00000000e+00 

        </DataArray>
      </Points>
      <Cells>
        <DataArray type="Int32" Name="connectivity" format="ascii">
0 1 5 4
4 5 9 8
8 9 13 12
1 2 6 5
5 6 10 9
9 10 14 13
2 3 7 6
6 7 11 10
10 11 15 14

        </DataArray>
        <DataArray type="Int32" Name="offsets" format="ascii">
4 8 12 16 20 24 28 32 36 
        </DataArray>
        <DataArray type="UInt8" Name="types" format="ascii">
9 9 9 9 9 9 9 9 9 
        </DataArray>
      </Cells>
      <PointData>
        <DataArray type="Float64" Name="u">
          0.00000000e+00 -6.18397460e+00 -1.07215348e+01 -1.70222446e+01 0.00000000e+00 -7.00548452e+00 -1.15179712e+01 -1.73598857e+01 0.00000000e+00 -6.96197195e+00 -1.02576996e+01 -1.42897135e+01 0.00000000e+00 -5.49458779e+00 -6.23066963e+00 -7.07694014e+00 
        </DataArray>
        <DataArray type="Float64" Name="v">
          0.00000000e+00 5.22646860e+00 4.83620233e+00 3.10932541e+00 0.00000000e+00 8.75579353e+00 7.45210666e+00 4.47976587e+00 0.00000000e+00 1.15594913e+01 9.36858514e+00 5.16325802e+00 0.00000000e+00 1.46313256e+01 1.06986112e+01 4.92672093e+00 
        </DataArray>
        <DataArray type="Float64" Name="p">
          -4.58769185e+03 -4.55534188e+03 -4.52299190e+03 -4.49064193e+03 -4.67397309e+03 -4.62490269e+03 -4.57583228e+03 -4.52676188e+03 -4.76025433e+03 -4.69446350e+03 -4.62867266e+03 -4.56288182e+03 -4.84653557e+03 -4.76402430e+03 -4.68151304e+03 -4.59900177e+03 
        </DataArray>
      </PointData>
    </Piece>
    <Piece NumberOfPoints="16" NumberOfCells="9">
      <Points>
        <DataArray type="Float64" NumberOfComponents="3" format="ascii">
          2.50000000e+00 2.00000000e+00 0.00000000e+00 
3.33333325e+00 2.00000000e+00 0.00000000e+00 
4.16666651e+00 2.00000000e+00 0.00000000e+00 
5.00000000e+00 2.00000000e+00 0.00000000e+00 
2.50000000e+00 2.33333325e+00 0.00000000e+00 
3.33333325e+00 2.33333325e+00 0.00000000e+00 
4.16666651e+00 2.33333325e+00 0.00000000e+00 
5.00000000e+00 2.33333325e+00 0.00000000e+00 
2.50000000e+00 2.66666675e+00 0.00000000e+00 
3.33333325e+00 2.66666675e+00 0.00000000e+00 
4.16666651e+00 2.66666675e+00 0.00000000e+00 
5.00000000e+00 2.66666675e+00 0.00000000e+00 
2.50000000e+00 3.00000000e+00 0.00000000e+00 
3.33333325e+00 3.00000000e+00 0.00000000e+00 
4.16666651e+00 3.00000000e+00 0.00000000e+00 
5.00000000e+00 3.00000000e+00 0.00000000e+00 

        </DataArray>
      </Points>
      <Cells>
        <DataArray type="Int32" Name="connectivity" format="ascii">
0 1 5 4
4 5 9 8
8 9 13 12
1 2 6 5
5 6 10 9
9 10 14 13
2 3 7 6
6 7 11 10
10 11 15 14

        </DataArray>
        <DataArray type="Int32" Name="offsets" format="ascii">
4 8 12 16 20 24 28 32 36 
        </DataArray>
        <DataArray type="UInt8" Name="types" format="ascii">
9 9 9 9 9 9 9 9 9 
        </DataArray>
      </Cells>
      <PointData>
        <DataArray type="Float64" Name="u">
          0.00000000e+00 -5.49458779e+00 -6.23066963e+00 -7.07694014e+00 0.00000000e+00 -1.43107511e+00 1.26087583e+00 6.50477823e+00 0.00000000e+00 1.02957422e+01 1.60425387e+01 2.69764816e+01 0.00000000e+00 4.15710712e+01 4.38993438e+01 5.71296666e+01 
        </DataArray>
        <DataArray type="Float64" Name="v">
          0.00000000e+00 1.46313256e+01 1.06986112e+01 4.92672093e+00 0.00000000e+00 1.64159328e+01 9.52931550e+00 2.86590961e+00 0.00000000e+00 1.38133327e+01 7.64987890e+00 1.30792295e+00 0.00000000e+00 4.29147445e+00 2.41834546e+00 5.88469021e-01 
        </DataArray>
        <DataArray type="Float64" Name="p">
          -4.81529461e+03 -4.77378581e+03 -4.73227702e+03 -4.69076822e+03 -5.12661260e+03 -4.93285033e+03 -4.73908806e+03 -4.54532578e+03 -5.43793060e+03 -5.09191485e+03 -4.74589910e+03 -4.39988334e+03 -5.74924860e+03 -5.25097937e+03 -4.75271013e+03 -4.25444090e+03 
        </DataArray>
      </PointData>
    </Piece>
    <Piece NumberOfPoints="16" NumberOfCells="9">
      <Points>
        <DataArray type="Float64" NumberOfComponents="3" format="ascii">
          2.50000000e+00 3.00000000e+00 0.00000000e+00 
3.33333325e+00 3.00000000e+00 0.00000000e+00 
4.16666651e+00 3.00000000e+00 0.00000000e+00 
5.00000000e+00 3.00000000e+00 0.00000000e+00 
2.50000000e+00 3.33333325e+00 0.00000000e+00 
3.33333325e+00 3.33333325e+00 0.00000000e+00 
4.16666651e+00 3.33333325e+00 0.00000000e+00 
5.00000000e+00 3.33333325e+00 0.00000000e+00 
2.50000000e+00 3.66666675e+00 0.00000000e+00 
3.33333325e+00 3.66666675e+00 0.00000000e+00 
4.16666651e+00 3.66666675e+00 0.00000000e+00 
5.00000000e+00 3.66666675e+00 0.00000000e+00 
2.50000000e+00 4.00000000e+00 0.00000000e+00 
3.33333325e+00 4.00000000e+00 0.00000000e+00 
4.16666651e+00 4.00000000e+00 0.00000000e+00 
5.00000000e+00 4.00000000e+00 0.00000000e+00 

        </DataArray>
      </Points>
      <Cells>
        <DataArray type="Int32" Name="connectivity" format="ascii">
0 1 5 4
4 5 9 8
8 9 13 12
1 2 6 5
5 6 10 9
9 10 14 13
2 3 7 6
6 7 11 10
10 11 15 14

        </DataArray>
        <DataArray type="Int32" Name="offsets" format="ascii">
4 8 12 16 20 24 28 32 36 
        </DataArray>
        <DataArray type="UInt8" Name="types" format="ascii">
9 9 9 9 9 9 9 9 9 
        </DataArray>
      </Cells>
      <PointData>
        <DataArray type="Float64" Name="u">
          0.00000000e+00 4.15710712e+01 4.38993438e+01 5.71296666e+01 8.56574425e+01 8.88273041e+01 8.95783949e+01 9.16027534e+01 1.51062702e+02 1.44355093e+02 1.40607337e+02 1.34238560e+02 1.95550649e+02 1.87017907e+02 1.82788846e+02 1.72234576e+02 
        </DataArray>
        <DataArray type="Float64" Name="v">
          0.00000000e+00 4.29147445e+00 2.41834546e+00 5.88469021e-01 -7.28610309e-02 -2.86467362e+00 7.94168076e-04 3.30983448e+00 1.28320193e+00 -2.91462979e+00 -1.15879769e+00 3.93486524e+00 2.64830242e+00 7.26251466e-01 2.91020857e+00 6.68940561e+00 
        </DataArray>
        <DataArray type="Float64" Name="p">
          -5.78589561e+03 -5.19635758e+03 -4.60681956e+03 -4.01728154e+03 -5.40999226e+03 -5.04417632e+03 -4.67836038e+03 -4.31254443e+03 -5.03408892e+03 -4.89199506e+03 -4.74990119e+03 -4.60780732e+03 -4.65818558e+03 -4.73981379e+03 -4.82144201e+03 -4.90307022e+03 
        </DataArray>
      </PointData>
    </Piece>
    <Piece NumberOfPoints="16" NumberOfCells="9">
      <Points>
        <DataArray type="Float64" NumberOfComponents="3" format="ascii">
          2.50000000e+00 4.00000000e+00 0.00000000e+00 
3.33333325e+00 4.00000000e+00 0.00000000e+00 
4.16666651e+00 4.00000000e+00 0.00000000e+00 
5.00000000e+00 4.00000000e+00 0.00000000e+00 
2.50000000e+00 4.33333349e+00 0.00000000e+00 
3.33333325e+00 4.33333349e+00 0.00000000e+00 
4.16666651e+00 4.33333349e+00 0.00000000e+00 
5.00000000e+00 4.33333349e+00 0.00000000e+00 
2.50000000e+00 4.66666651e+00 0.00000000e+00 
3.33333325e+00 4.66666651e+00 0.00000000e+00 
4.16666651e+00 4.66666651e+00 0.00000000e+00 
5.00000000e+00 4.66666651e+00 0.00000000e+00 
2.50000000e+00 5.00000000e+00 0.00000000e+00 
3.33333325e+00 5.00000000e+00 0.00000000e+00 
4.16666651e+00 5.00000000e+00 0.00000000e+00 
5.00000000e+00 5.00000000e+00 0.00000000e+00 

        </DataArray>
      </Points>
      <Cells>
        <DataArray type="Int32" Name="connectivity" format="ascii">
0 1 5 4
4 5 9 8
8 9 13 12
1 2 6 5
5 6 10 9
9 10 14 13
2 3 7 6
6 7 11 10
10 11 15 14

        </DataArray>
        <DataArray type="Int32" Name="offsets" format="ascii">
4 8 12 16 20 24 28 32 36 
        </DataArray>
        <DataArray type="UInt8" Name="types" format="ascii">
9 9 9 9 9 9 9 9 9 
        </DataArray>
      </Cells>
      <PointData>
        <DataArray type="Float64" Name="u">
          1.95550649e+02 1.87017907e+02 1.82788846e+02 1.72234576e+02 2.19428505e+02 2.10662103e+02 2.07049681e+02 1.96748922e+02 2.21664983e+02 2.13821804e+02 2.12001558e+02 2.03423029e+02 2.01924906e+02 1.95771666e+02 1.96959305e+02 1.90758145e+02 
        </DataArray>
        <DataArray type="Float64" Name="v">
          2.64830242e+00 7.26251466e-01 2.91020857e+00 6.68940561e+00 3.92868633e+00 5.31347640e+00 6.77086185e+00 9.22071185e+00 3.86157875e+00 6.42153638e+00 9.37311218e+00 1.17570727e+01 4.35418677e+00 1.00569517e+01 1.20041640e+01 1.26085328e+01 
        </DataArray>
        <DataArray type="Float64" Name="p">
          -4.51725635e+03 -4.69478208e+03 -4.87230782e+03 -5.04983356e+03 -4.69000875e+03 -4.89358524e+03 -5.09716172e+03 -5.30073821e+03 -4.86276116e+03 -5.09238839e+03 -5.32201563e+03 -5.55164286e+03 -5.03551356e+03 -5.29119155e+03 -5.54686953e+03 -5.80254751e+03 
        </DataArray>
      </PointData>
    </Piece>
    <Piece NumberOfPoints="16" NumberOfCells="9">
      <Points>
        <DataArray type="Float64" NumberOfComponents="3" format="ascii">
          2.50000000e+00 5.00000000e+00 0.00000000e+00 
3.33333325e+00 5.00000000e+00 0.00000000e+00 
4.16666651e+00 5.00000000e+00 0.00000000e+00 
5.00000000e+00 5.00000000e+00 0.00000000e+00 
2.50000000e+00 5.33333349e+00 0.00000000e+00 
3.33333325e+00 5.33333349e+00 0.00000000e+00 
4.16666651e+00 5.33333349e+00 0.00000000e+00 
5.00000000e+00 5.33333349e+00 0.00000000e+00 
2.50000000e+00 5.66666651e+00 0.00000000e+00 
3.33333325e+00 5.66666651e+00 0.00000000e+00 
4.16666651e+00 5.66666651e+00 0.00000000e+00 
5.00000000e+00 5.66666651e+00 0.00000000e+00 
2.50000000e+00 6.00000000e+00 0.00000000e+00 
3.33333325e+00 6.00000000e+00 0.00000000e+00 
4.16666651e+00 6.00000000e+00 0.00000000e+00 
5.00000000e+00 6.00000000e+00 0.00000000e+00 

        </DataArray>
      </Points>
      <Cells>
        <DataArray type="Int32" Name="connectivity" format="ascii">
0 1 5 4
4 5 9 8
8 9 13 12
1 2 6 5
5 6 10 9
9 10 14 13
2 3 7 6
6 7 11 10
10 11 15 14

        </DataArray>
        <DataArray type="Int32" Name="offsets" format="ascii">
4 8 12 16 20 24 28 32 36 
        </DataArray>
        <DataArray type="UInt8" Name="types" format="ascii">
9 9 9 9 9 9 9 9 9 
        </DataArray>
      </Cells>
      <PointData>
        <DataArray type="Float64" Name="u">
          2.01924906e+02 1.95771666e+02 1.96959305e+02 1.90758145e+02 1.60558227e+02 1.57961382e+02 1.61357282e+02 1.61668742e+02 9.66444377e+01 1.03365592e+02 1.12033537e+02 1.21298677e+02 0.00000000e+00 5.17634249e+01 6.10663620e+01 8.24776950e+01 
        </DataArray>
        <DataArray type="Float64" Name="v">
          4.35418677e+00 1.00569517e+01 1.20041640e+01 1.26085328e+01 3.06598143e+00 1.12733884e+01 1.30109078e+01 1.12254116e+01 3.38477401e+00 1.08513022e+01 1.11203086e+01 9.63352815e+00 0.00000000e+00 4.43127054e-01 4.59825918e+00 8.57982851e+00 
        </DataArray>
        <DataArray type="Float64" Name="p">
          -5.22881781e+03 -5.41083092e+03 -5.59284403e+03 -5.77485715e+03 -5.86327645e+03 -5.75813352e+03 -5.65299058e+03 -5.54784765e+03 -6.49773510e+03 -6.10543611e+03 -5.71313713e+03 -5.32083815e+03 -7.13219374e+03 -6.45273871e+03 -5.77328368e+03 -5.09382864e+03 
        </DataArray>
      </PointData>
    </Piece>
    <Piece NumberOfPoints="16" NumberOfCells="9">
      <Points>
        <DataArray type="Float64" NumberOfComponents="3" format="ascii">
          2.50000000e+00 6.00000000e+00 0.00000000e+00 
3.33333325e+00 6.00000000e+00 0.00000000e+00 
4.16666651e+00 6.00000000e+00 0.00000000e+00 
5.00000000e+00 6.00000000e+00 0.00000000e+00 
2.50000000e+00 6.33333349e+00 0.00000000e+00 
3.33333325e+00 6.33333349e+00 0.00000000e+00 
4.16666651e+00 6.33333349e+00 0.00000000e+00 
5.00000000e+00 6.33333349e+00 0.00000000e+00 
2.50000000e+00 6.66666651e+00 0.00000000e+00 
3.33333325e+00 6.66666651e+00 0.00000000e+00 
4.16666651e+00 6.66666651e+00 0.00000000e+00 
5.00000000e+00 6.66666651e+00 0.00000000e+00 
2.50000000e+00 7.00000000e+00 0.00000000e+00 
3.33333325e+00 7.00000000e+00 0.00000000e+00 
4.16666651e+00 7.00000000e+00 0.00000000e+00 
5.00000000e+00 7.00000000e+00 0.00000000e+00 

        </DataArray>
      </Points>
      <Cells>
        <DataArray type="Int32" Name="connectivity" format="ascii">
0 1 5 4
4 5 9 8
8 9 13 12
1 2 6 5
5 6 10 9
9 10 14 13
2 3 7 6
6 7 11 10
10 11 15 14

        </DataArray>
        <DataArray type="Int32" Name="offsets" format="ascii">
4 8 12 16 20 24 28 32 36 
        </DataArray>
        <DataArray type="UInt8" Name="types" format="ascii">
9 9 9 9 9 9 9 9 9 
        </DataArray>
      </Cells>
      <PointData>
        <DataArray type="Float64" Name="u">
          0.00000000e+00 5.17634249e+01 6.10663620e+01 8.24776950e+01 0.00000000e+00 1.46778492e+01 2.60824230e+01 4.54969904e+01 0.00000000e+00 2.23343285e-01 6.78930490e+00 1.86043748e+01 0.00000000e+00 -5.06419224e+00 -3.47104026e+00 -7.20071762e-01 
        </DataArray>
        <DataArray type="Float64" Name="v">
          0.00000000e+00 4.43127054e-01 4.59825918e+00 8.57982851e+00 0.00000000e+00 -1.26555608e+01 -4.17473516e+00 5.22175646e+00 0.00000000e+00 -1.71240585e+01 -8.42752102e+00 1.35067491e+00 0.00000000e+00 -1.60649817e+01 -1.14629441e+01 -3.33692282e+00 
        </DataArray>
        <DataArray type="Float64" Name="p">
          -7.02911065e+03 -6.44141404e+03 -5.85371743e+03 -5.26602082e+03 -6.67328277e+03 -6.27250250e+03 -5.87172222e+03 -5.47094195e+03 -6.31745489e+03 -6.10359095e+03 -5.88972702e+03 -5.67586308e+03 -5.96162701e+03 -5.93467941e+03 -5.90773181e+03 -5.88078421e+03 
        </DataArray>
      </PointData>
    </Piece>
    <Piece NumberOfPoints="16" NumberOfCells="9">
      <Points>
        <DataArray type="Float64" NumberOfComponents="3" format="ascii">
          2.50000000e+00 7.00000000e+00 0.00000000e+00 
3.33333325e+00 7.00000000e+00 0.00000000e+00 
4.16666651e+00 7.00000000e+00 0.00000000e+00 
5.00000000e+00 7.00000000e+00 0.00000000e+00 
2.50000000e+00 7.33333349e+00 0.00000000e+00 
3.33333325e+00 7.33333349e+00 0.00000000e+00 
4.16666651e+00 7.33333349e+00 0.00000000e+00 
5.00000000e+00 7.33333349e+00 0.00000000e+00 
2.50000000e+00 7.66666651e+00 0.00000000e+00 
3.33333325e+00 7.66666651e+00 0.00000000e+00 
4.16666651e+00 7.66666651e+00 0.00000000e+00 
5.00000000e+00 7.66666651e+00 0.00000000e+00 
2.50000000e+00 8.00000000e+00 0.00000000e+00 
3.33333325e+00 8.00000000e+00 0.00000000e+00 
4.16666651e+00 8.00000000e+00 0.00000000e+00 
5.00000000e+00 8.00000000e+00 0.00000000e+00 

        </DataArray>
      </Points>
      <Cells>
        <DataArray type="Int32" Name="connectivity" format="ascii">
0 1 5 4
4 5 9 8
8 9 13 12
1 2 6 5
5 6 10 9
9 10 14 13
2 3 7 6
6 7 11 10
10 11 15 14

        </DataArray>
        <DataArray type="Int32" Name="offsets" format="ascii">
4 8 12 16 20 24 28 32 36 
        </DataArray>
        <DataArray type="UInt8" Name="types" format="ascii">
9 9 9 9 9 9 9 9 9 
        </DataArray>
      </Cells>
      <PointData>
        <DataArray type="Float64" Name="u">
          0.00000000e+00 -5.06419224e+00 -3.47104026e+00 -7.20071762e-01 0.00000000e+00 -7.34843114e+00 -9.64740644e+00 -1.22868562e+01 0.00000000e+00 -7.91590915e+00 -1.23813013e+01 -1.84653621e+01 0.00000000e+00 -7.33545499e+00 -1.23534740e+01 -1.98852278e+01 
        </DataArray>
        <DataArray type="Float64" Name="v">
          0.00000000e+00 -1.60649817e+01 -1.14629441e+01 -3.33692282e+00 0.00000000e+00 -1.32133794e+01 -1.08420105e+01 -5.11899640e+00 0.00000000e+00 -1.02640155e+01 -8.97550433e+00 -5.11996453e+00 0.00000000e+00 -6.29188526e+00 -5.99746231e+00 -3.90787582e+00 
        </DataArray>
        <DataArray type="Float64" Name="p">
          -6.00701387e+03 -5.92367507e+03 -5.84033626e+03 -5.75699745e+03 -5.91029040e+03 -5.83833025e+03 -5.76637010e+03 -5.69440994e+03 -5.81356693e+03 -5.75298543e+03 -5.69240393e+03 -5.63182243e+03 -5.71684346e+03 -5.66764061e+03 -5.61843777e+03 -5.56923492e+03 
        </DataArray>
      </PointData>
    </Piece>
    <Piece NumberOfPoints="16" NumberOfCells="9">
      <Points>
        <DataArray type="Float64" NumberOfComponents="3" format="ascii">
          2.50000000e+00 8.00000000e+00 0.00000000e+00 
3.33333325e+00 8.00000000e+00 0.00000000e+00 
4.16666651e+00 8.00000000e+00 0.00000000e+00 
5.00000000e+00 8.00000000e+00 0.00000000e+00 
2.50000000e+00 8.33333302e+00 0.00000000e+00 
3.33333325e+00 8.33333302e+00 0.00000000e+00 
4.16666651e+00 8.33333302e+00 0.00000000e+00 
5.00000000e+00 8.33333302e+00 0.00000000e+00 
2.50000000e+00 8.66666698e+00 0.00000000e+00 
3.33333325e+00 8.66666698e+00 0.00000000e+00 
4.16666651e+00 8.66666698e+00 0.00000000e+00 
5.00000000e+00 8.66666698e+00 0.00000000e+00 
2.50000000e+00 9.00000000e+00 0.00000000e+00 
3.33333325e+00 9.00000000e+00 0.00000000e+00 
4.16666651e+00 9.00000000e+00 0.00000000e+00 
5.00000000e+00 9.00000000e+00 0.00000000e+00 

        </DataArray>
      </Points>
      <Cells>
        <DataArray type="Int32" Name="connectivity" format="ascii">
0 1 5 4
4 5 9 8
8 9 13 12
1 2 6 5
5 6 10 9
9 10 14 13
2 3 7 6
6 7 11 10
10 11 15 14

        </DataArray>
        <DataArray type="Int32" Name="offsets" format="ascii">
4 8 12 16 20 24 28 32 36 
        </DataArray>
        <DataArray type="UInt8" Name="types" format="ascii">
9 9 9 9 9 9 9 9 9 
        </DataArray>
      </Cells>
      <PointData>
        <DataArray type="Float64" Name="u">
          0.00000000e+00 -7.33545499e+00 -1.23534740e+01 -1.98852278e+01 0.00000000e+00 -5.82311170e+00 -9.96682995e+00 -1.70920770e+01 0.00000000e+00 -3.38558464e+00 -5.64608028e+00 -1.02594458e+01 0.00000000e+00 0.00000000e+00 0.00000000e+00 0.00000000e+00 
        </DataArray>
        <DataArray type="Float64" Name="v">
          0.00000000e+00 -6.29188526e+00 -5.99746231e+00 -3.90787582e+00 0.00000000e+00 -2.89603650e+00 -2.92184045e+00 -1.99093859e+00 0.00000000e+00 -9.95461292e-01 -1.07341133e+00 -7.88071693e-01 0.00000000e+00 0.00000000e+00 0.00000000e+00 0.00000000e+00 
        </DataArray>
        <DataArray type="Float64" Name="p">
          -5.73221969e+03 -5.67197476e+03 -5.61172982e+03 -5.55148489e+03 -5.74615307e+03 -5.68606036e+03 -5.62596764e+03 -5.56587492e+03 -5.76008645e+03 -5.70014595e+03 -5.64020546e+03 -5.58026496e+03 -5.77401983e+03 -5.71423155e+03 -5.65444327e+03 -5.59465500e+03 
        </DataArray>
      </PointData>
    </Piece>
    <Piece NumberOfPoints="16" NumberOfCells="9">
      <Points>
        <DataArray type="Float64" NumberOfComponents="3" format="ascii">
          5.00000000e+00 0.00000000e+00 0.00000000e+00 
5.83333349e+00 0.00000000e+00 0.00000000e+00 
6.66666651e+00 0.00000000e+00 0.00000000e+00 
7.50000000e+00 0.00000000e+00 0.00000000e+00 
5.00000000e+00 3.33333343e-01 0.00000000e+00 
5.83333349e+00 3.33333343e-01 0.00000000e+00 
6.66666651e+00 3.33333343e-01 0.00000000e+00 
7.50000000e+00 3.33333343e-01 0.00000000e+00 
5.00000000e+00 6.66666687e-01 0.00000000e+00 
5.83333349e+00 6.66666687e-01 0.00000000e+00 
6.66666651e+00 6.66666687e-01 0.00000000e+00 
7.50000000e+00 6.66666687e-01 0.00000000e+00 
5.00000000e+00 1.00000000e+00 0.00000000e+00 
5.83333349e+00 1.00000000e+00 0.00000000e+00 
6.66666651e+00 1.00000000e+00 0.00000000e+00 
7.50000000e+00 1.00000000e+00 0.00000000e+00 

        </DataArray>
      </Points>
      <Cells>
        <DataArray type="Int32" Name="connectivity" format="ascii">
0 1 5 4
4 5 9 8
8 9 13 12
1 2 6 5
5 6 10 9
9 10 14 13
2 3 7 6
6 7 11 10
10 11 15 14

        </DataArray>
        <DataArray type="Int32" Name="offsets" format="ascii">
4 8 12 16 20 24 28 32 36 
        </DataArray>
        <DataArray type="UInt8" Name="types" format="ascii">
9 9 9 9 9 9 9 9 9 
        </DataArray>
      </Cells>
      <PointData>
        <DataArray type="Float64" Name="u">