<?xml version="1.0"?>
<VTKFile type="UnstructuredGrid" version="0.1" byte_order="LittleEndian">
  <UnstructuredGrid>
    <Piece NumberOfPoints="16" NumberOfCells="9">
      <Points>
        <DataArray type="Float64" NumberOfComponents="3" format="ascii">
          0.00000000e+00 3.00000000e+00 0.00000000e+00 
8.33333313e-01 3.00000000e+00 0.00000000e+00 
1.66666663e+00 3.00000000e+00 0.00000000e+00 
2.50000000e+00 3.00000000e+00 0.00000000e+00 
0.00000000e+00 3.33333325e+00 0.00000000e+00 
8.33333313e-01 3.33333325e+00 0.00000000e+00 
1.66666663e+00 3.33333325e+00 0.00000000e+00 
2.50000000e+00 3.33333325e+00 0.00000000e+00 
0.00000000e+00 3.66666675e+00 0.00000000e+00 
8.33333313e-01 3.66666675e+00 0.00000000e+00 
1.66666663e+00 3.66666675e+00 0.00000000e+00 
2.50000000e+00 3.66666675e+00 0.00000000e+00 
0.00000000e+00 4.00000000e+00 0.00000000e+00 
8.33333313e-01 4.00000000e+00 0.00000000e+00 
1.66666663e+00 4.00000000e+00 0.00000000e+00 
2.50000000e+00 4.00000000e+00 0.00000000e+00 

        </DataArray>
      </Points>
      <Cells>
        <DataArray type="Int32" Name="connectivity" format="ascii">
0 1 5 4
4 5 9 8
8 9 13 12
1 2 6 5
5 6 10 9
9 10 14 13
2 3 7 6
6 7 11 10
10 11 15 14

        </DataArray>
        <DataArray type="Int32" Name="offsets" format="ascii">
4 8 12 16 20 24 28 32 36 
        </DataArray>
        <DataArray type="UInt8" Name="types" format="ascii">
9 9 9 9 9 9 9 9 9 
        </DataArray>
      </Cells>
      <PointData>
        <DataArray type="Float64" Name="u">
          0.00000000e+00 0.00000000e+00 0.00000000e+00 0.00000000e+00 8.88888889e+01 9.18558692e+01 9.12596851e+01 9.92420363e+01 1.55555556e+02 1.57664861e+02 1.58204906e+02 1.62702981e+02 2.00000000e+02 2.00587495e+02 2.01805204e+02 2.03571590e+02 
        </DataArray>
        <DataArray type="Float64" Name="v">
          0.00000000e+00 0.00000000e+00 0.00000000e+00 0.00000000e+00 0.00000000e+00 -1.02534433e+00 -1.45534656e+00 -3.98459442e+00 0.00000000e+00 -9.05236181e-01 -2.03353656e+00 -3.86694251e+00 0.00000000e+00 -2.00651383e+00 -3.51180488e+00 -5.87436666e+00 
        </DataArray>
        <DataArray type="Float64" Name="p">
          -2.48874367e+03 -3.73203306e+03 -4.97532245e+03 -6.21861183e+03 -2.46879225e+03 -3.68923861e+03 -4.90968496e+03 -6.13013132e+03 -2.44884083e+03 -3.64644415e+03 -4.84404748e+03 -6.04165081e+03 -2.42888940e+03 -3.60364970e+03 -4.77840999e+03 -5.95317029e+03 
        </DataArray>
      </PointData>
    </Piece>
    <Piece NumberOfPoints="16" NumberOfCells="9">
      <Points>
        <DataArray type="Float64" NumberOfComponents="3" format="ascii">
          0.00000000e+00 4.00000000e+00 0.00000000e+00 
8.33333313e-01 4.00000000e+00 0.00000000e+00 
1.66666663e+00 4.00000000e+00 0.00000000e+00 
2.50000000e+00 4.00000000e+00 0.00000000e+00 
0.00000000e+00 4.33333349e+00 0.00000000e+00 
8.33333313e-01 4.33333349e+00 0.00000000e+00 
1.66666663e+00 4.33333349e+00 0.00000000e+00 
2.50000000e+00 4.33333349e+00 0.00000000e+00 
0.00000000e+00 4.66666651e+00 0.00000000e+00 
8.33333313e-01 4.66666651e+00 0.00000000e+00 
1.66666663e+00 4.66666651e+00 0.00000000e+00 
2.50000000e+00 4.66666651e+00 0.00000000e+00 
0.00000000e+00 5.00000000e+00 0.00000000e+00 
8.33333313e-01 5.00000000e+00 0.00000000e+00 
1.66666663e+00 5.00000000e+00 0.00000000e+00 
2.50000000e+00 5.00000000e+00 0.00000000e+00 

        </DataArray>
      </Points>
      <Cells>
        <DataArray type="Int32" Name="connectivity" format="ascii">
0 1 5 4
4 5 9 8
8 9 13 12
1 2 6 5
5 6 10 9
9 10 14 13
2 3 7 6
6 7 11 10
10 11 15 14

        </DataArray>
        <DataArray type="Int32" Name="offsets" format="ascii">
4 8 12 16 20 24 28 32 36 
        </DataArray>
        <DataArray type="UInt8" Name="types" format="ascii">
9 9 9 9 9 9 9 9 9 
        </DataArray>
      </Cells>
      <PointData>
        <DataArray type="Float64" Name="u">
          2.00000000e+02 2.00587495e+02 2.01805204e+02 2.03571590e+02 2.22222222e+02 2.21679593e+02 2.22711074e+02 2.22361090e+02 2.22222222e+02 2.20623252e+02 2.21532405e+02 2.19105947e+02 2.00000000e+02 1.97651819e+02 1.98667472e+02 1.94235856e+02 
        </DataArray>
        <DataArray type="Float64" Name="v">
          0.00000000e+00 -2.00651383e+00 -3.51180488e+00 -5.87436666e+00 0.00000000e+00 -2.07763843e+00 -3.98912477e+00 -5.64587001e+00 0.00000000e+00 -2.07307858e+00 -3.80073091e+00 -5.71739328e+00 0.00000000e+00 -1.44310767e+00 -3.09450099e+00 -4.36658649e+00 
        </DataArray>
        <DataArray type="Float64" Name="p">
          -2.39079999e+03 -3.56444908e+03 -4.73809818e+03 -5.91174728e+03 -2.20925168e+03 -3.38945075e+03 -4.56964982e+03 -5.74984889e+03 -2.02770338e+03 -3.21445242e+03 -4.40120146e+03 -5.58795049e+03 -1.84615508e+03 -3.03945409e+03 -4.23275310e+03 -5.42605210e+03 
        </DataArray>
      </PointData>
    </Piece>
    <Piece NumberOfPoints="16" NumberOfCells="9">
      <Points>
        <DataArray type="Float64" NumberOfComponents="3" format="ascii">
          0.00000000e+00 5.00000000e+00 0.00000000e+00 
8.33333313e-01 5.00000000e+00 0.00000000e+00 
1.66666663e+00 5.00000000e+00 0.00000000e+00 
2.50000000e+00 5.00000000e+00 0.00000000e+00 
0.00000000e+00 5.33333349e+00 0.00000000e+00 
8.33333313e-01 5.33333349e+00 0.00000000e+00 
1.66666663e+00 5.33333349e+00 0.00000000e+00 
2.50000000e+00 5.33333349e+00 0.00000000e+00 
0.00000000e+00 5.66666651e+00 0.00000000e+00 
8.33333313e-01 5.66666651e+00 0.00000000e+00 
1.66666663e+00 5.66666651e+00 0.00000000e+00 
2.50000000e+00 5.66666651e+00 0.00000000e+00 
0.00000000e+00 6.00000000e+00 0.00000000e+00 
8.33333313e-01 6.00000000e+00 0.00000000e+00 
1.66666663e+00 6.00000000e+00 0.00000000e+00 
2.50000000e+00 6.00000000e+00 0.00000000e+00 

        </DataArray>
      </Points>
      <Cells>
        <DataArray type="Int32" Name="connectivity" format="ascii">
0 1 5 4
4 5 9 8
8 9 13 12
1 2 6 5
5 6 10 9
9 10 14 13
2 3 7 6
6 7 11 10
10 11 15 14

        </DataArray>
        <DataArray type="Int32" Name="offsets" format="ascii">
4 8 12 16 20 24 28 32 36 
        </DataArray>
        <DataArray type="UInt8" Name="types" format="ascii">
9 9 9 9 9 9 9 9 9 
        </DataArray>
      </Cells>
      <PointData>
        <DataArray type="Float64" Name="u">
          2.00000000e+02 1.97651819e+02 1.98667472e+02 1.94235856e+02 1.55555556e+02 1.53198416e+02 1.54067883e+02 1.48792033e+02 8.88888889e+01 8.71686564e+01 8.75587383e+01 8.25909494e+01 0.00000000e+00 0.00000000e+00 0.00000000e+00 0.00000000e+00 
        </DataArray>
        <DataArray type="Float64" Name="v">
          0.00000000e+00 -1.44310767e+00 -3.09450099e+00 -4.36658649e+00 0.00000000e+00 -5.31982933e-01 -1.53193886e+00 -2.45844719e+00 0.00000000e+00 -5.29553745e-01 -1.36167182e+00 -9.54142310e-01 0.00000000e+00 0.00000000e+00 0.00000000e+00 0.00000000e+00 
        </DataArray>
        <DataArray type="Float64" Name="p">
          -1.84857533e+03 -3.02310354e+03 -4.19763175e+03 -5.37215995e+03 -1.81584456e+03 -2.98733439e+03 -4.15882423e+03 -5.33031407e+03 -1.78311379e+03 -2.95156525e+03 -4.12001671e+03 -5.28846818e+03 -1.75038302e+03 -2.91579611e+03 -4.08120920e+03 -5.24662229e+03 
        </DataArray>
      </PointData>
    </Piece>
    <Piece NumberOfPoints="16" NumberOfCells="9">
      <Points>
        <DataArray type="Float64" NumberOfComponents="3" format="ascii">
          2.50000000e+00 0.00000000e+00 0.00000000e+00 
3.33333325e+00 0.00000000e+00 0.00000000e+00 
4.16666651e+00 0.00000000e+00 0.00000000e+00 
5.00000000e+00 0.00000000e+00 0.00000000e+00 
2.50000000e+00 3.33333343e-01 0.00000000e+00 
3.33333325e+00 3.33333343e-01 0.00000000e+00 
4.16666651e+00 3.33333343e-01 0.00000000e+00 
5.00000000e+00 3.33333343e-01 0.00000000e+00 
2.50000000e+00 6.66666687e-01 0.00000000e+00 
3.33333325e+00 6.66666687e-01 0.00000000e+00 
4.16666651e+00 6.66666687e-01 0.00000000e+00 
5.00000000e+00 6.66666687e-01 0.00000000e+00 
2.50000000e+00 1.00000000e+00 0.00000000e+00 
3.33333325e+00 1.00000000e+00 0.00000000e+00 
4.16666651e+00 1.00000000e+00 0.00000000e+00 
5.00000000e+00 1.00000000e+00 0.00000000e+00 

        </DataArray>
      </Points>
      <Cells>
        <DataArray type="Int32" Name="connectivity" format="ascii">
0 1 5 4
4 5 9 8
8 9 13 12
1 2 6 5
5 6 10 9
9 10 14 13
2 3 7 6
6 7 11 10
10 11 15 14

        </DataArray>
        <DataArray type="Int32" Name="offsets" format="ascii">
4 8 12 16 20 24 28 32 36 
        </DataArray>
        <DataArray type="UInt8" Name="types" format="ascii">
9 9 9 9 9 9 9 9 9 
        </DataArray>
      </Cells>
      <PointData>
        <DataArray type="Float64" Name="u">
          0.00000000e+00 0.00000000e+00 0.00000000e+00 0.00000000e+00 0.00000000e+00 -3.23011066e+00 -5.57805126e+00 -1.01535102e+01 0.00000000e+00 -5.61774400e+00 -9.92976763e+00 -1.71777555e+01 0.00000000e+00 -7.11662991e+00 -1.23849504e+01 -2.00686011e+01 
        </DataArray>
        <DataArray type="Float64" Name="v">
          0.00000000e+00 0.00000000e+00 0.00000000e+00 0.00000000e+00 0.00000000e+00 9.68189019e-01 1.04803158e+00 8.59105880e-01 0.00000000e+00 2.82724826e+00 2.89903169e+00 2.14602344e+00 0.00000000e+00 6.16751077e+00 6.05030302e+00 4.17151793e+00 
        </DataArray>
        <DataArray type="Float64" Name="p">
          -6.23471536e+03 -6.19021061e+03 -6.14570586e+03 -6.10120110e+03 -6.22344089e+03 -6.17803834e+03 -6.13263579e+03 -6.08723324e+03 -6.21216642e+03 -6.16586608e+03 -6.11956573e+03 -6.07326539e+03 -6.20089195e+03 -6.15369381e+03 -6.10649567e+03 -6.05929753e+03 
        </DataArray>
      </PointData>
    </Piece>
    <Piece NumberOfPoints="16" NumberOfCells="9">
      <Points>
        <DataArray type="Float64" NumberOfComponents="3" format="ascii">
          2.50000000e+00 1.00000000e+00 0.00000000e+00 
3.33333325e+00 1.00000000e+00 0.00000000e+00 
4.16666651e+00 1.00000000e+00 0.00000000e+00 
5.00000000e+00 1.00000000e+00 0.00000000e+00 
2.50000000e+00 1.33333337e+00 0.00000000e+00 
3.33333325e+00 1.33333337e+00 0.00000000e+00 
4.16666651e+00 1.33333337e+00 0.00000000e+00 
5.00000000e+00 1.33333337e+00 0.00000000e+00 
2.50000000e+00 1.66666663e+00 0.00000000e+00 
3.33333325e+00 1.66666663e+00 0.00000000e+00 
4.16666651e+00 1.66666663e+00 0.00000000e+00 
5.00000000e+00 1.66666663e+00 0.00000000e+00 
2.50000000e+00 2.00000000e+00 0.00000000e+00 
3.33333325e+00 2.00000000e+00 0.00000000e+00 
4.16666651e+00 2.00000000e+00 0.00000000e+00 
5.00000000e+00 2.00000000e+00 0.00000000e+00 

        </DataArray>
      </Points>
      <Cells>
        <DataArray type="Int32" Name="connectivity" format="ascii">
0 1 5 4
4 5 9 8
8 9 13 12
1 2 6 5
5 6 10 9
9 10 14 13
2 3 7 6
6 7 11 10
10 11 15 14

        </DataArray>
        <DataArray type="Int32" Name="offsets" format="ascii">
4 8 12 16 20 24 28 32 36 
        </DataArray>
        <DataArray type="UInt8" Name="types" format="ascii">
9 9 9 9 9 9 9 9 9 
        </DataArray>
      </Cells>
      <PointData>
        <DataArray type="Float64" Name="u">
          0.00000000e+00 -7.11662991e+00 -1.23849504e+01 -2.00686011e+01 0.00000000e+00 -7.67609380e+00 -1.24295522e+01 -1.85748772e+01 0.00000000e+00 -7.10762310e+00 -9.66440864e+00 -1.21477046e+01 0.00000000e+00 -4.89775583e+00 -3.41909415e+00 -1.44286294e-01 
        </DataArray>
        <DataArray type="Float64" Name="v">
          0.00000000e+00 6.16751077e+00 6.05030302e+00 4.17151793e+00 0.00000000e+00 1.00886418e+01 9.11327238e+00 5.45552228e+00 0.00000000e+00 1.30016061e+01 1.10215183e+01 5.43424020e+00 0.00000000e+00 1.58066186e+01 1.16248122e+01 3.48292021e+00 
        </DataArray>
        <DataArray type="Float64" Name="p">
          -6.18751606e+03 -6.15020833e+03 -6.11290060e+03 -6.07559287e+03 -6.26722942e+03 -6.22494865e+03 -6.18266788e+03 -6.14038711e+03 -6.34694279e+03 -6.29968897e+03 -6.25243516e+03 -6.20518134e+03 -6.42665616e+03 -6.37442930e+03 -6.32220244e+03 -6.26997558e+03 
        </DataArray>
      </PointData>
    </Piece>
    <Piece NumberOfPoints="16" NumberOfCells="9">
      <Points>
        <DataArray type="Float64" NumberOfComponents="3" format="ascii">
          2.50000000e+00 2.00000000e+00 0.00000000e+00 
3.33333325e+00 2.00000000e+00 0.00000000e+00 
4.16666651e+00 2.00000000e+00 0.00000000e+00 
5.00000000e+00 2.00000000e+00 0.00000000e+00 
2.50000000e+00 2.33333325e+00 0.00000000e+00 
3.33333325e+00 2.33333325e+00 0.00000000e+00 
4.16666651e+00 2.33333325e+00 0.00000000e+00 
5.00000000e+00 2.33333325e+00 0.00000000e+00 
2.50000000e+00 2.66666675e+00 0.00000000e+00 
3.33333325e+00 2.66666675e+00 0.00000000e+00 
4.16666651e+00 2.66666675e+00 0.00000000e+00 
5.00000000e+00 2.66666675e+00 0.00000000e+00 
2.50000000e+00 3.00000000e+00 0.00000000e+00 
3.33333325e+00 3.00000000e+00 0.00000000e+00 
4.16666651e+00 3.00000000e+00 0.00000000e+00 
5.00000000e+00 3.00000000e+00 0.00000000e+00 

        </DataArray>
      </Points>
      <Cells>
        <DataArray type="Int32" Name="connectivity" format="ascii">
0 1 5 4
4 5 9 8
8 9 13 12
1 2 6 5
5 6 10 9
9 10 14 13
2 3 7 6
6 7 11 10
10 11 15 14

        </DataArray>
        <DataArray type="Int32" Name="offsets" format="ascii">
4 8 12 16 20 24 28 32 36 
        </DataArray>
        <DataArray type="UInt8" Name="types" format="ascii">
9 9 9 9 9 9 9 9 9 
        </DataArray>
      </Cells>
      <PointData>
        <DataArray type="Float64" Name="u">
          0.00000000e+00 -4.89775583e+00 -3.41909415e+00 -1.44286294e-01 0.00000000e+00 1.68232258e-01 6.89096150e+00 1.99785710e+01 0.00000000e+00 1.45239179e+01 2.67317488e+01 4.80882751e+01 0.00000000e+00 5.29089548e+01 6.39530550e+01 8.71462668e+01 
        </DataArray>
        <DataArray type="Float64" Name="v">
          0.00000000e+00 1.58066186e+01 1.16248122e+01 3.48292021e+00 0.00000000e+00 1.68730901e+01 8.30317057e+00 -1.78048236e+00 0.00000000e+00 1.24079053e+01 3.80952099e+00 -6.20154036e+00 0.00000000e+00 -9.80217878e-01 -5.77075396e+00 -1.04508798e+01 
        </DataArray>
        <DataArray type="Float64" Name="p">
          -6.38289442e+03 -6.38519237e+03 -6.38749033e+03 -6.38978829e+03 -6.69342860e+03 -6.52783793e+03 -6.36224727e+03 -6.19665660e+03 -7.00396278e+03 -6.67048349e+03 -6.33700420e+03 -6.00352491e+03 -7.31449696e+03 -6.81312905e+03 -6.31176114e+03 -5.81039322e+03 
        </DataArray>
      </PointData>
    </Piece>
    <Piece NumberOfPoints="16" NumberOfCells="9">
      <Points>
        <DataArray type="Float64" NumberOfComponents="3" format="ascii">
          2.50000000e+00 3.00000000e+00 0.00000000e+00 
3.33333325e+00 3.00000000e+00 0.00000000e+00 
4.16666651e+00 3.00000000e+00 0.00000000e+00 
5.00000000e+00 3.00000000e+00 0.00000000e+00 
2.50000000e+00 3.33333325e+00 0.00000000e+00 
3.33333325e+00 3.33333325e+00 0.00000000e+00 
4.16666651e+00 3.33333325e+00 0.00000000e+00 
5.00000000e+00 3.33333325e+00 0.00000000e+00 
2.50000000e+00 3.66666675e+00 0.00000000e+00 
3.33333325e+00 3.66666675e+00 0.00000000e+00 
4.16666651e+00 3.66666675e+00 0.00000000e+00 
5.00000000e+00 3.66666675e+00 0.00000000e+00 
2.50000000e+00 4.00000000e+00 0.00000000e+00 
3.33333325e+00 4.00000000e+00 0.00000000e+00 
4.16666651e+00 4.00000000e+00 0.00000000e+00 
5.00000000e+00 4.00000000e+00 0.00000000e+00 

        </DataArray>
      </Points>
      <Cells>
        <DataArray type="Int32" Name="connectivity" format="ascii">
0 1 5 4
4 5 9 8
8 9 13 12
1 2 6 5
5 6 10 9
9 10 14 13
2 3 7 6
6 7 11 10
10 11 15 14

        </DataArray>
        <DataArray type="Int32" Name="offsets" format="ascii">
4 8 12 16 20 24 28 32 36 
        </DataArray>
        <DataArray type="UInt8" Name="types" format="ascii">
9 9 9 9 9 9 9 9 9 
        </DataArray>
      </Cells>
      <PointData>
        <DataArray type="Float64" Name="u">
          0.00000000e+00 5.29089548e+01 6.39530550e+01 8.71462668e+01 9.92420363e+01 1.06659770e+02 1.17174087e+02 1.28154486e+02 1.62702981e+02 1.61581269e+02 1.66731895e+02 1.68788569e+02 2.03571590e+02 1.98445298e+02 2.01083491e+02 1.96211910e+02 
        </DataArray>
        <DataArray type="Float64" Name="v">
          0.00000000e+00 -9.80217878e-01 -5.77075396e+00 -1.04508798e+01 -3.98459442e+00 -1.21374685e+01 -1.33451009e+01 -1.25848404e+01 -3.86694251e+00 -1.24139366e+01 -1.51581703e+01 -1.45955764e+01 -5.87436666e+00 -1.21364411e+01 -1.51034337e+01 -1.70220840e+01 
        </DataArray>
        <DataArray type="Float64" Name="p">
          -7.44929753e+03 -6.85531025e+03 -6.26132297e+03 -5.66733568e+03 -6.81276914e+03 -6.48837519e+03 -6.16398124e+03 -5.83958728e+03 -6.17624076e+03 -6.12144013e+03 -6.06663951e+03 -6.01183888e+03 -5.53971237e+03 -5.75450507e+03 -5.96929778e+03 -6.18409048e+03 
        </DataArray>
      </PointData>
    </Piece>
    <Piece NumberOfPoints="16" NumberOfCells="9">
      <Points>
        <DataArray type="Float64" NumberOfComponents="3" format="ascii">
          2.50000000e+00 4.00000000e+00 0.00000000e+00 
3.33333325e+00 4.00000000e+00 0.00000000e+00 
4.16666651e+00 4.00000000e+00 0.00000000e+00 
5.00000000e+00 4.00000000e+00 0.00000000e+00 
2.50000000e+00 4.33333349e+00 0.00000000e+00 
3.33333325e+00 4.33333349e+00 0.00000000e+00 
4.16666651e+00 4.33333349e+00 0.00000000e+00 
5.00000000e+00 4.33333349e+00 0.00000000e+00 
2.50000000e+00 4.66666651e+00 0.00000000e+00 
3.33333325e+00 4.66666651e+00 0.00000000e+00 
4.16666651e+00 4.66666651e+00 0.00000000e+00 
5.00000000e+00 4.66666651e+00 0.00000000e+00 
2.50000000e+00 5.00000000e+00 0.00000000e+00 
3.33333325e+00 5.00000000e+00 0.00000000e+00 
4.16666651e+00 5.00000000e+00 0.00000000e+00 
5.00000000e+00 5.00000000e+00 0.00000000e+00 

        </DataArray>
      </Points>
      <Cells>
        <DataArray type="Int32" Name="connectivity" format="ascii">
0 1 5 4
4 5 9 8
8 9 13 12
1 2 6 5
5 6 10 9
9 10 14 13
2 3 7 6
6 7 11 10
10 11 15 14

        </DataArray>
        <DataArray type="Int32" Name="offsets" format="ascii">
4 8 12 16 20 24 28 32 36 
        </DataArray>
        <DataArray type="UInt8" Name="types" format="ascii">
9 9 9 9 9 9 9 9 9 
        </DataArray>
      </Cells>
      <PointData>
        <DataArray type="Float64" Name="u">
          2.03571590e+02 1.98445298e+02 2.01083491e+02 1.96211910e+02 2.22361090e+02 2.15418456e+02 2.14143301e+02 2.06238623e+02 2.19105947e+02 2.10751711e+02 2.06888246e+02 1.96351809e+02 1.94235856e+02 1.85612940e+02 1.80300808e+02 1.68782417e+02 
        </DataArray>
        <DataArray type="Float64" Name="v">
          -5.87436666e+00 -1.21364411e+01 -1.51034337e+01 -1.70220840e+01 -5.64587001e+00 -8.94493101e+00 -1.28195929e+01 -1.63517501e+01 -5.71739328e+00 -8.11353804e+00 -1.05476545e+01 -1.39058876e+01 -4.36658649e+00 -3.50490593e+00 -6.41095183e+00 -1.07247413e+01 
        </DataArray>
        <DataArray type="Float64" Name="p">
          -5.35811642e+03 -5.62693329e+03 -5.89575015e+03 -6.16456702e+03 -5.11087120e+03 -5.34376096e+03 -5.57665073e+03 -5.80954049e+03 -4.86362597e+03 -5.06058864e+03 -5.25755131e+03 -5.45451397e+03 -4.61638075e+03 -4.77741631e+03 -4.93845188e+03 -5.09948745e+03 
        </DataArray>
      </PointData>
    </Piece>
    <Piece NumberOfPoints="16" NumberOfCells="9">
      <Points>
        <DataArray type="Float64" NumberOfComponents="3" format="ascii">
          2.50000000e+00 5.00000000e+00 0.00000000e+00 
3.33333325e+00 5.00000000e+00 0.00000000e+00 
4.16666651e+00 5.00000000e+00 0.00000000e+00 
5.00000000e+00 5.00000000e+00 0.00000000e+00 
2.50000000e+00 5.33333349e+00 0.00000000e+00 
3.33333325e+00 5.33333349e+00 0.00000000e+00 
4.16666651e+00 5.33333349e+00 0.00000000e+00 
5.00000000e+00 5.33333349e+00 0.00000000e+00 
2.50000000e+00 5.66666651e+00 0.00000000e+00 
3.33333325e+00 5.66666651e+00 0.00000000e+00 
4.16666651e+00 5.66666651e+00 0.00000000e+00 
5.00000000e+00 5.66666651e+00 0.00000000e+00 
2.50000000e+00 6.00000000e+00 0.00000000e+00 
3.33333325e+00 6.00000000e+00 0.00000000e+00 
4.16666651e+00 6.00000000e+00 0.00000000e+00 
5.00000000e+00 6.00000000e+00 0.00000000e+00 

        </DataArray>
      </Points>
      <Cells>
        <DataArray type="Int32" Name="connectivity" format="ascii">
0 1 5 4
4 5 9 8
8 9 13 12
1 2 6 5
5 6 10 9
9 10 14 13
2 3 7 6
6 7 11 10
10 11 15 14

        </DataArray>
        <DataArray type="Int32" Name="offsets" format="ascii">
4 8 12 16 20 24 28 32 36 
        </DataArray>
        <DataArray type="UInt8" Name="types" format="ascii">
9 9 9 9 9 9 9 9 9 
        </DataArray>
      </Cells>
      <PointData>
        <DataArray type="Float64" Name="u">
          1.94235856e+02 1.85612940e+02 1.80300808e+02 1.68782417e+02 1.48792033e+02 1.41329757e+02 1.35976114e+02 1.27822929e+02 8.25909494e+01 8.46485002e+01 8.35068172e+01 8.36065770e+01 0.00000000e+00 3.77635484e+01 3.85954183e+01 4.97802498e+01 
        </DataArray>
        <DataArray type="Float64" Name="v">
          -4.36658649e+00 -3.50490593e+00 -6.41095183e+00 -1.07247413e+01 -2.45844719e+00 5.40599949e-01 -1.60114594e+00 -6.82926204e+00 -9.54142310e-01 6.60956189e-01 -2.56391016e+00 -5.80193065e+00 0.00000000e+00 -5.55694670e+00 -3.90859395e+00 -2.22883243e+00 
        </DataArray>
        <DataArray type="Float64" Name="p">
          -4.72830526e+03 -4.80044551e+03 -4.87258576e+03 -4.94472601e+03 -5.00633558e+03 -4.89441646e+03 -4.78249735e+03 -4.67057823e+03 -5.28436590e+03 -4.98838742e+03 -4.69240894e+03 -4.39643046e+03 -5.56239621e+03 -5.08235837e+03 -4.60232052e+03 -4.12228268e+03 
        </DataArray>
      </PointData>
    </Piece>
    <Piece NumberOfPoints="16" NumberOfCells="9">
      <Points>
        <DataArray type="Float64" NumberOfComponents="3" format="ascii">
          2.50000000e+00 6.00000000e+00 0.00000000e+00 
3.33333325e+00 6.00000000e+00 0.00000000e+00 
4.16666651e+00 6.00000000e+00 0.00000000e+00 
5.00000000e+00 6.00000000e+00 0.00000000e+00 
2.50000000e+00 6.33333349e+00 0.00000000e+00 
3.33333325e+00 6.33333349e+00 0.00000000e+00 
4.16666651e+00 6.33333349e+00 0.00000000e+00 
5.00000000e+00 6.33333349e+00 0.00000000e+00 
2.50000000e+00 6.66666651e+00 0.00000000e+00 
3.33333325e+00 6.66666651e+00 0.00000000e+00 
4.16666651e+00 6.66666651e+00 0.00000000e+00 
5.00000000e+00 6.66666651e+00 0.00000000e+00 
2.50000000e+00 7.00000000e+00 0.00000000e+00 
3.33333325e+00 7.00000000e+00 0.00000000e+00 
4.16666651e+00 7.00000000e+00 0.00000000e+00 
5.00000000e+00 7.00000000e+00 0.00000000e+00 

        </DataArray>
      </Points>
      <Cells>
        <DataArray type="Int32" Name="connectivity" format="ascii">
0 1 5 4
4 5 9 8
8 9 13 12
1 2 6 5
5 6 10 9
9 10 14 13
2 3 7 6
6 7 11 10
10 11 15 14

        </DataArray>
        <DataArray type="Int32" Name="offsets" format="ascii">
4 8 12 16 20 24 28 32 36 
        </DataArray>
        <DataArray type="UInt8" Name="types" format="ascii">
9 9 9 9 9 9 9 9 9 
        </DataArray>
      </Cells>
      <PointData>
        <DataArray type="Float64" Name="u">
          0.00000000e+00 3.77635484e+01 3.85954183e+01 4.97802498e+01 0.00000000e+00 8.35114433e+00 1.25943953e+01 2.15665553e+01 0.00000000e+00 -2.06315428e+00 -5.48822061e-01 3.15882013e+00 0.00000000e+00 -5.45830410e+00 -6.93190439e+00 -8.55743427e+00 
        </DataArray>
        <DataArray type="Float64" Name="v">
          0.00000000e+00 -5.55694670e+00 -3.90859395e+00 -2.22883243e+00 0.00000000e+00 -1.37710365e+01 -8.29208050e+00 -2.58443571e+00 0.00000000e+00 -1.56573821e+01 -9.48288474e+00 -3.70384034e+00 0.00000000e+00 -1.36583240e+01 -1.01985912e+01 -5.21428562e+00 
        </DataArray>
        <DataArray type="Float64" Name="p">
          -5.52762751e+03 -5.13750422e+03 -4.74738093e+03 -4.35725764e+03 -5.27463484e+03 -5.00619335e+03 -4.73775186e+03 -4.46931038e+03 -5.02164216e+03 -4.87488248e+03 -4.72812279e+03 -4.58136311e+03 -4.76864949e+03 -4.74357161e+03 -4.71849372e+03 -4.69341584e+03 
        </DataArray>
      </PointData>
    </Piece>
    <Piece NumberOfPoints="16" NumberOfCells="9">
      <Points>
        <DataArray type="Float64" NumberOfComponents="3" format="ascii">
          2.50000000e+00 7.00000000e+00 0.00000000e+00 
3.33333325e+00 7.00000000e+00 0.00000000e+00 
4.16666651e+00 7.00000000e+00 0.00000000e+00 
5.00000000e+00 7.00000000e+00 0.00000000e+00 
2.50000000e+00 7.33333349e+00 0.00000000e+00 
3.33333325e+00 7.33333349e+00 0.00000000e+00 
4.16666651e+00 7.33333349e+00 0.00000000e+00 
5.00000000e+00 7.33333349e+00 0.00000000e+00 
2.50000000e+00 7.66666651e+00 0.00000000e+00 
3.33333325e+00 7.66666651e+00 0.00000000e+00 
4.16666651e+00 7.66666651e+00 0.00000000e+00 
5.00000000e+00 7.66666651e+00 0.00000000e+00 
2.50000000e+00 8.00000000e+00 0.00000000e+00 
3.33333325e+00 8.00000000e+00 0.00000000e+00 
4.16666651e+00 8.00000000e+00 0.00000000e+00 
5.00000000e+00 8.00000000e+00 0.00000000e+00 

        </DataArray>
      </Points>
      <Cells>
        <DataArray type="Int32" Name="connectivity" format="ascii">
0 1 5 4
4 5 9 8
8 9 13 12
1 2 6 5
5 6 10 9
9 10 14 13
2 3 7 6
6 7 11 10
10 11 15 14

        </DataArray>
        <DataArray type="Int32" Name="offsets" format="ascii">
4 8 12 16 20 24 28 32 36 
        </DataArray>
        <DataArray type="UInt8" Name="types" format="ascii">
9 9 9 9 9 9 9 9 9 
        </DataArray>
      </Cells>
      <PointData>
        <DataArray type="Float64" Name="u">
          0.00000000e+00 -5.45830410e+00 -6.93190439e+00 -8.55743427e+00 0.00000000e+00 -6.55401644e+00 -1.01665815e+01 -1.43766616e+01 0.00000000e+00 -6.41495778e+00 -1.09280805e+01 -1.65046942e+01 0.00000000e+00 -5.54691573e+00 -9.90675805e+00 -1.56857894e+01 
        </DataArray>
        <DataArray type="Float64" Name="v">
          0.00000000e+00 -1.36583240e+01 -1.01985912e+01 -5.21428562e+00 0.00000000e+00 -1.06112515e+01 -8.70340070e+00 -5.09724789e+00 0.00000000e+00 -7.95097224e+00 -6.82569936e+00 -4.27481681e+00 0.00000000e+00 -4.68403053e+00 -4.36355420e+00 -2.88736062e+00 
        </DataArray>
        <DataArray type="Float64" Name="p">
          -4.79335854e+03 -4.73478894e+03 -4.67621933e+03 -4.61764973e+03 -4.72533555e+03 -4.67961643e+03 -4.63389732e+03 -4.58817821e+03 -4.65731255e+03 -4.62444393e+03 -4.59157531e+03 -4.55870668e+03 -4.58928956e+03 -4.56927143e+03 -4.54925329e+03 -4.52923516e+03 
        </DataArray>
      </PointData>
    </Piece>
    <Piece NumberOfPoints="16" NumberOfCells="9">
      <Points>
        <DataArray type="Float64" NumberOfComponents="3" format="ascii">
          2.50000000e+00 8.00000000e+00 0.00000000e+00 
3.33333325e+00 8.00000000e+00 0.00000000e+00 
4.16666651e+00 8.00000000e+00 0.00000000e+00 
5.00000000e+00 8.00000000e+00 0.00000000e+00 
2.50000000e+00 8.33333302e+00 0.00000000e+00 
3.33333325e+00 8.33333302e+00 0.00000000e+00 
4.16666651e+00 8.33333302e+00 0.00000000e+00 
5.00000000e+00 8.33333302e+00 0.00000000e+00 
2.50000000e+00 8.66666698e+00 0.00000000e+00 
3.33333325e+00 8.66666698e+00 0.00000000e+00 
4.16666651e+00 8.66666698e+00 0.00000000e+00 
5.00000000e+00 8.66666698e+00 0.00000000e+00 
2.50000000e+00 9.00000000e+00 0.00000000e+00 
3.33333325e+00 9.00000000e+00 0.00000000e+00 
4.16666651e+00 9.00000000e+00 0.00000000e+00 
5.00000000e+00 9.00000000e+00 0.00000000e+00 

        </DataArray>
      </Points>
      <Cells>
        <DataArray type="Int32" Name="connectivity" format="ascii">
0 1 5 4
4 5 9 8
8 9 13 12
1 2 6 5
5 6 10 9
9 10 14 13
2 3 7 6
6 7 11 10
10 11 15 14

        </DataArray>
        <DataArray type="Int32" Name="offsets" format="ascii">
4 8 12 16 20 24 28 32 36 
        </DataArray>
        <DataArray type="UInt8" Name="types" format="ascii">
9 9 9 9 9 9 9 9 9 
        </DataArray>
      </Cells>
      <PointData>
        <DataArray type="Float64" Name="u">
          0.00000000e+00 -5.54691573e+00 -9.90675805e+00 -1.56857894e+01 0.00000000e+00 -4.18101128e+00 -7.53734492e+00 -1.25366652e+01 0.00000000e+00 -2.33400063e+00 -4.10980271e+00 -7.25983397e+00 0.00000000e+00 0.00000000e+00 0.00000000e+00 0.00000000e+00 
        </DataArray>
        <DataArray type="Float64" Name="v">
          0.00000000e+00 -4.68403053e+00 -4.36355420e+00 -2.88736062e+00 0.00000000e+00 -2.10778613e+00 -2.10877186e+00 -1.37989412e+00 0.00000000e+00 -6.90899938e-01 -7.48031231e-01 -4.83108664e-01 0.00000000e+00 0.00000000e+00 0.00000000e+00 0.00000000e+00 
        </DataArray>
        <DataArray type="Float64" Name="p">
          -4.60265942e+03 -4.57628169e+03 -4.54990396e+03 -4.52352623e+03 -4.61295832e+03 -4.58658821e+03 -4.56021809e+03 -4.53384797e+03 -4.62325723e+03 -4.59689473e+03 -4.57053222e+03 -4.54416972e+03 -4.63355614e+03 -4.60720125e+03 -4.58084635e+03 -4.55449146e+03 
        </DataArray>
      </PointData>
    </Piece>
    <Piece NumberOfPoints="16" NumberOfCells="9">
      <Points>
        <DataArray type="Float64" NumberOfComponents="3" format="ascii">
          5.00000000e+00 0.00000000e+00 0.00000000e+00 
5.83333349e+00 0.00000000e+00 0.00000000e+00 
6.66666651e+00 0.00000000e+00 0.00000000e+00 
7.50000000e+00 0.00000000e+00 0.00000000e+00 
5.00000000e+00 3.33333343e-01 0.00000000e+00 
5.83333349e+00 3.33333343e-01 0.00000000e+00 
6.66666651e+00 3.33333343e-01 0.00000000e+00 
7.50000000e+00 3.33333343e-01 0.00000000e+00 
5.00000000e+00 6.66666687e-01 0.00000000e+00 
5.83333349e+00 6.66666687e-01 0.00000000e+00 
6.66666651e+00 6.66666687e-01 0.00000000e+00 
7.50000000e+00 6.66666687e-01 0.00000000e+00 
5.00000000e+00 1.00000000e+00 0.00000000e+00 
5.83333349e+00 1.00000000e+00 0.00000000e+00 
6.66666651e+00 1.00000000e+00 0.00000000e+00 
7.50000000e+00 1.00000000e+00 0.00000000e+00 

        </DataArray>
      </Points>
      <Cells>
        <DataArray type="Int32" Name="connectivity" format="ascii">
0 1 5 4
4 5 9 8
8 9 13 12
1 2 6 5
5 6 10 9
9 10 14 13
2 3 7 6
6 7 11 10
10 11 15 14

        </DataArray>
        <DataArray type="Int32" Name="offsets" format="ascii">
4 8 12 16 20 24 28 32 36 
        </DataArray>
        <DataArray type="UInt8" Name="types" format="ascii">
9 9 9 9 9 9 9 9 9 
        </DataArray>
      </Cells>
      <PointData>
        <DataArray type="Float64" Name="u">