<?xml version="1.0"?>
<VTKFile type="UnstructuredGrid" version="0.1" byte_order="LittleEndian">
  <UnstructuredGrid>
    <Piece NumberOfPoints="16" NumberOfCells="9">
      <Points>
        <DataArray type="Float64" NumberOfComponents="3" format="ascii">
          0.00000000e+00 3.00000000e+00 0.00000000e+00 
8.33333313e-01 3.00000000e+00 0.00000000e+00 
1.66666663e+00 3.00000000e+00 0.00000000e+00 
2.50000000e+00 3.00000000e+00 0.00000000e+00 
0.00000000e+00 3.33333325e+00 0.00000000e+00 
8.33333313e-01 3.33333325e+00 0.00000000e+00 
1.66666663e+00 3.33333325e+00 0.00000000e+00 
2.50000000e+00 3.33333325e+00 0.00000000e+00 
0.00000000e+00 3.66666675e+00 0.00000000e+00 
8.33333313e-01 3.66666675e+00 0.00000000e+00 
1.66666663e+00 3.66666675e+00 0.00000000e+00 
2.50000000e+00 3.66666675e+00 0.00000000e+00 
0.00000000e+00 4.00000000e+00 0.00000000e+00 
8.33333313e-01 4.00000000e+00 0.00000000e+00 
1.66666663e+00 4.00000000e+00 0.00000000e+00 
2.50000000e+00 4.00000000e+00 0.00000000e+00 

        </DataArray>
      </Points>
      <Cells>
        <DataArray type="Int32" Name="connectivity" format="ascii">
0 1 5 4
4 5 9 8
8 9 13 12
1 2 6 5
5 6 10 9
9 10 14 13
2 3 7 6
6 7 11 10
10 11 15 14

        </DataArray>
        <DataArray type="Int32" Name="offsets" format="ascii">
4 8 12 16 20 24 28 32 36 
        </DataArray>
        <DataArray type="UInt8" Name="types" format="ascii">
9 9 9 9 9 9 9 9 9 
        </DataArray>
      </Cells>
      <PointData>
        <DataArray type="Float64" Name="u">
          0.00000000e+00 0.00000000e+00 0.00000000e+00 0.00000000e+00 8.88888889e+01 8.72043792e+01 8.75905332e+01 8.27194459e+01 1.55555556e+02 1.53225455e+02 1.54099942e+02 1.48879280e+02 2.00000000e+02 1.97662739e+02 1.98690989e+02 1.94283420e+02 
        </DataArray>
        <DataArray type="Float64" Name="v">
          0.00000000e+00 0.00000000e+00 0.00000000e+00 0.00000000e+00 0.00000000e+00 5.16106324e-01 1.33923946e+00 9.10819600e-01 0.00000000e+00 5.21169281e-01 1.50882197e+00 2.41228620e+00 0.00000000e+00 1.41770064e+00 3.04943871e+00 4.30007566e+00 
        </DataArray>
        <DataArray type="Float64" Name="p">
          -1.72296385e+03 -2.89719497e+03 -4.07142609e+03 -5.24565720e+03 -1.75535076e+03 -2.93240021e+03 -4.10944966e+03 -5.28649911e+03 -1.78773767e+03 -2.96760545e+03 -4.14747324e+03 -5.32734102e+03 -1.82012458e+03 -3.00281070e+03 -4.18549681e+03 -5.36818293e+03 
        </DataArray>
      </PointData>
    </Piece>
    <Piece NumberOfPoints="16" NumberOfCells="9">
      <Points>
        <DataArray type="Float64" NumberOfComponents="3" format="ascii">
          0.00000000e+00 4.00000000e+00 0.00000000e+00 
8.33333313e-01 4.00000000e+00 0.00000000e+00 
1.66666663e+00 4.00000000e+00 0.00000000e+00 
2.50000000e+00 4.00000000e+00 0.00000000e+00 
0.00000000e+00 4.33333349e+00 0.00000000e+00 
8.33333313e-01 4.33333349e+00 0.00000000e+00 
1.66666663e+00 4.33333349e+00 0.00000000e+00 
2.50000000e+00 4.33333349e+00 0.00000000e+00 
0.00000000e+00 4.66666651e+00 0.00000000e+00 
8.33333313e-01 4.66666651e+00 0.00000000e+00 
1.66666663e+00 4.66666651e+00 0.00000000e+00 
2.50000000e+00 4.66666651e+00 0.00000000e+00 
0.00000000e+00 5.00000000e+00 0.00000000e+00 
8.33333313e-01 5.00000000e+00 0.00000000e+00 
1.66666663e+00 5.00000000e+00 0.00000000e+00 
2.50000000e+00 5.00000000e+00 0.00000000e+00 

        </DataArray>
      </Points>
      <Cells>
        <DataArray type="Int32" Name="connectivity" format="ascii">
0 1 5 4
4 5 9 8
8 9 13 12
1 2 6 5
5 6 10 9
9 10 14 13
2 3 7 6
6 7 11 10
10 11 15 14

        </DataArray>
        <DataArray type="Int32" Name="offsets" format="ascii">
4 8 12 16 20 24 28 32 36 
        </DataArray>
        <DataArray type="UInt8" Name="types" format="ascii">
9 9 9 9 9 9 9 9 9 
        </DataArray>
      </Cells>
      <PointData>
        <DataArray type="Float64" Name="u">
          2.00000000e+02 1.97662739e+02 1.98690989e+02 1.94283420e+02 2.22222222e+02 2.20620087e+02 2.21542014e+02 2.19115191e+02 2.22222222e+02 2.21663308e+02 2.22706920e+02 2.22332348e+02 2.00000000e+02 2.00562549e+02 2.01792935e+02 2.03506591e+02 
        </DataArray>
        <DataArray type="Float64" Name="v">
          0.00000000e+00 1.41770064e+00 3.04943871e+00 4.30007566e+00 0.00000000e+00 2.04450333e+00 3.74976729e+00 5.64983698e+00 0.00000000e+00 2.04992368e+00 3.93945094e+00 5.57825256e+00 0.00000000e+00 1.98393612e+00 3.47075526e+00 5.81770177e+00 
        </DataArray>
        <DataArray type="Float64" Name="p">
          -1.81736775e+03 -3.01873367e+03 -4.22009959e+03 -5.42146551e+03 -1.99626464e+03 -3.19151037e+03 -4.38675611e+03 -5.58200185e+03 -2.17516153e+03 -3.36428708e+03 -4.55341263e+03 -5.74253818e+03 -2.35405842e+03 -3.53706379e+03 -4.72006915e+03 -5.90307452e+03 
        </DataArray>
      </PointData>
    </Piece>
    <Piece NumberOfPoints="16" NumberOfCells="9">
      <Points>
        <DataArray type="Float64" NumberOfComponents="3" format="ascii">
          0.00000000e+00 5.00000000e+00 0.00000000e+00 
8.33333313e-01 5.00000000e+00 0.00000000e+00 
1.66666663e+00 5.00000000e+00 0.00000000e+00 
2.50000000e+00 5.00000000e+00 0.00000000e+00 
0.00000000e+00 5.33333349e+00 0.00000000e+00 
8.33333313e-01 5.33333349e+00 0.00000000e+00 
1.66666663e+00 5.33333349e+00 0.00000000e+00 
2.50000000e+00 5.33333349e+00 0.00000000e+00 
0.00000000e+00 5.66666651e+00 0.00000000e+00 
8.33333313e-01 5.66666651e+00 0.00000000e+00 
1.66666663e+00 5.66666651e+00 0.00000000e+00 
2.50000000e+00 5.66666651e+00 0.00000000e+00 
0.00000000e+00 6.00000000e+00 0.00000000e+00 
8.33333313e-01 6.00000000e+00 0.00000000e+00 
1.66666663e+00 6.00000000e+00 0.00000000e+00 
2.50000000e+00 6.00000000e+00 0.00000000e+00 

        </DataArray>
      </Points>
      <Cells>
        <DataArray type="Int32" Name="connectivity" format="ascii">
0 1 5 4
4 5 9 8
8 9 13 12
1 2 6 5
5 6 10 9
9 10 14 13
2 3 7 6
6 7 11 10
10 11 15 14

        </DataArray>
        <DataArray type="Int32" Name="offsets" format="ascii">
4 8 12 16 20 24 28 32 36 
        </DataArray>
        <DataArray type="UInt8" Name="types" format="ascii">
9 9 9 9 9 9 9 9 9 
        </DataArray>
      </Cells>
      <PointData>
        <DataArray type="Float64" Name="u">
          2.00000000e+02 2.00562549e+02 2.01792935e+02 2.03506591e+02 1.55555556e+02 1.57632859e+02 1.58185556e+02 1.62622378e+02 8.88888889e+01 9.18188822e+01 9.12372564e+01 9.91380156e+01 0.00000000e+00 0.00000000e+00 0.00000000e+00 0.00000000e+00 
        </DataArray>
        <DataArray type="Float64" Name="v">
          0.00000000e+00 1.98393612e+00 3.47075526e+00 5.81770177e+00 0.00000000e+00 8.97411170e-01 2.01138443e+00 3.83873892e+00 0.00000000e+00 1.01214444e+00 1.43357693e+00 3.96303112e+00 0.00000000e+00 0.00000000e+00 0.00000000e+00 0.00000000e+00 
        </DataArray>
        <DataArray type="Float64" Name="p">
          -2.39203447e+03 -3.57610439e+03 -4.76017431e+03 -5.94424423e+03 -2.41131034e+03 -3.61831022e+03 -4.82531010e+03 -6.03230998e+03 -2.43058620e+03 -3.66051605e+03 -4.89044589e+03 -6.12037574e+03 -2.44986206e+03 -3.70272188e+03 -4.95558169e+03 -6.20844150e+03 
        </DataArray>
      </PointData>
    </Piece>
    <Piece NumberOfPoints="16" NumberOfCells="9">
      <Points>
        <DataArray type="Float64" NumberOfComponents="3" format="ascii">
          2.50000000e+00 0.00000000e+00 0.00000000e+00 
3.33333325e+00 0.00000000e+00 0.00000000e+00 
4.16666651e+00 0.00000000e+00 0.00000000e+00 
5.00000000e+00 0.00000000e+00 0.00000000e+00 
2.50000000e+00 3.33333343e-01 0.00000000e+00 
3.33333325e+00 3.33333343e-01 0.00000000e+00 
4.16666651e+00 3.33333343e-01 0.00000000e+00 
5.00000000e+00 3.33333343e-01 0.00000000e+00 
2.50000000e+00 6.66666687e-01 0.00000000e+00 
3.33333325e+00 6.66666687e-01 0.00000000e+00 
4.16666651e+00 6.66666687e-01 0.00000000e+00 
5.00000000e+00 6.66666687e-01 0.00000000e+00 
2.50000000e+00 1.00000000e+00 0.00000000e+00 
3.33333325e+00 1.00000000e+00 0.00000000e+00 
4.16666651e+00 1.00000000e+00 0.00000000e+00 
5.00000000e+00 1.00000000e+00 0.00000000e+00 

        </DataArray>
      </Points>
      <Cells>
        <DataArray type="Int32" Name="connectivity" format="ascii">
0 1 5 4
4 5 9 8
8 9 13 12
1 2 6 5
5 6 10 9
9 10 14 13
2 3 7 6
6 7 11 10
10 11 15 14

        </DataArray>
        <DataArray type="Int32" Name="offsets" format="ascii">
4 8 12 16 20 24 28 32 36 
        </DataArray>
        <DataArray type="UInt8" Name="types" format="ascii">
9 9 9 9 9 9 9 9 9 
        </DataArray>
      </Cells>
      <PointData>
        <DataArray type="Float64" Name="u">
          0.00000000e+00 0.00000000e+00 0.00000000e+00 0.00000000e+00 0.00000000e+00 -2.35068784e+00 -4.13278286e+00 -7.30229514e+00 0.00000000e+00 -4.20732227e+00 -7.57423153e+00 -1.26005293e+01 0.00000000e+00 -5.57699947e+00 -9.94653978e+00 -1.57508247e+01 
        </DataArray>
        <DataArray type="Float64" Name="v">
          0.00000000e+00 0.00000000e+00 0.00000000e+00 0.00000000e+00 0.00000000e+00 6.95481122e-01 7.52628902e-01 4.85519986e-01 0.00000000e+00 2.12016278e+00 2.12036776e+00 1.38565018e+00 0.00000000e+00 4.70955636e+00 4.38574097e+00 2.89782720e+00 
        </DataArray>
        <DataArray type="Float64" Name="p">
          -4.63122308e+03 -4.60425753e+03 -4.57729199e+03 -4.55032644e+03 -4.62080620e+03 -4.59383686e+03 -4.56686752e+03 -4.53989818e+03 -4.61038932e+03 -4.58341618e+03 -4.55644304e+03 -4.52946991e+03 -4.59997244e+03 -4.57299550e+03 -4.54601857e+03 -4.51904164e+03 
        </DataArray>
      </PointData>
    </Piece>
    <Piece NumberOfPoints="16" NumberOfCells="9">
      <Points>
        <DataArray type="Float64" NumberOfComponents="3" format="ascii">
          2.50000000e+00 1.00000000e+00 0.00000000e+00 
3.33333325e+00 1.00000000e+00 0.00000000e+00 
4.16666651e+00 1.00000000e+00 0.00000000e+00 
5.00000000e+00 1.00000000e+00 0.00000000e+00 
2.50000000e+00 1.33333337e+00 0.00000000e+00 
3.33333325e+00 1.33333337e+00 0.00000000e+00 
4.16666651e+00 1.33333337e+00 0.00000000e+00 
5.00000000e+00 1.33333337e+00 0.00000000e+00 
2.50000000e+00 1.66666663e+00 0.00000000e+00 
3.33333325e+00 1.66666663e+00 0.00000000e+00 
4.16666651e+00 1.66666663e+00 0.00000000e+00 
5.00000000e+00 1.66666663e+00 0.00000000e+00 
2.50000000e+00 2.00000000e+00 0.00000000e+00 
3.33333325e+00 2.00000000e+00 0.00000000e+00 
4.16666651e+00 2.00000000e+00 0.00000000e+00 
5.00000000e+00 2.00000000e+00 0.00000000e+00 

        </DataArray>
      </Points>
      <Cells>
        <DataArray type="Int32" Name="connectivity" format="ascii">
0 1 5 4
4 5 9 8
8 9 13 12
1 2 6 5
5 6 10 9
9 10 14 13
2 3 7 6
6 7 11 10
10 11 15 14

        </DataArray>
        <DataArray type="Int32" Name="offsets" format="ascii">
4 8 12 16 20 24 28 32 36 
        </DataArray>
        <DataArray type="UInt8" Name="types" format="ascii">
9 9 9 9 9 9 9 9 9 
        </DataArray>
      </Cells>
      <PointData>
        <DataArray type="Float64" Name="u">
          0.00000000e+00 -5.57699947e+00 -9.94653978e+00 -1.57508247e+01 0.00000000e+00 -6.44362231e+00 -1.09592062e+01 -1.65509498e+01 0.00000000e+00 -6.57505490e+00 -1.01767097e+01 -1.43836665e+01 0.00000000e+00 -5.46283611e+00 -6.90753946e+00 -8.50473232e+00 
        </DataArray>
        <DataArray type="Float64" Name="v">
          0.00000000e+00 4.70955636e+00 4.38574097e+00 2.89782720e+00 0.00000000e+00 7.98936829e+00 6.85569388e+00 4.28559071e+00 0.00000000e+00 1.06573476e+01 8.73649631e+00 5.10351103e+00 0.00000000e+00 1.37072409e+01 1.02261762e+01 5.20723038e+00 
        </DataArray>
        <DataArray type="Float64" Name="p">
          -4.58648603e+03 -4.56595481e+03 -4.54542358e+03 -4.52489235e+03 -4.65535222e+03 -4.62178286e+03 -4.58821350e+03 -4.55464414e+03 -4.72421841e+03 -4.67761092e+03 -4.63100342e+03 -4.58439592e+03 -4.79308460e+03 -4.73343897e+03 -4.67379334e+03 -4.61414771e+03 
        </DataArray>
      </PointData>
    </Piece>
    <Piece NumberOfPoints="16" NumberOfCells="9">
      <Points>
        <DataArray type="Float64" NumberOfComponents="3" format="ascii">
          2.50000000e+00 2.00000000e+00 0.00000000e+00 
3.33333325e+00 2.00000000e+00 0.00000000e+00 
4.16666651e+00 2.00000000e+00 0.00000000e+00 
5.00000000e+00 2.00000000e+00 0.00000000e+00 
2.50000000e+00 2.33333325e+00 0.00000000e+00 
3.33333325e+00 2.33333325e+00 0.00000000e+00 
4.16666651e+00 2.33333325e+00 0.00000000e+00 
5.00000000e+00 2.33333325e+00 0.00000000e+00 
2.50000000e+00 2.66666675e+00 0.00000000e+00 
3.33333325e+00 2.66666675e+00 0.00000000e+00 
4.16666651e+00 2.66666675e+00 0.00000000e+00 
5.00000000e+00 2.66666675e+00 0.00000000e+00 
2.50000000e+00 3.00000000e+00 0.00000000e+00 
3.33333325e+00 3.00000000e+00 0.00000000e+00 
4.16666651e+00 3.00000000e+00 0.00000000e+00 
5.00000000e+00 3.00000000e+00 0.00000000e+00 

        </DataArray>
      </Points>
      <Cells>
        <DataArray type="Int32" Name="connectivity" format="ascii">
0 1 5 4
4 5 9 8
8 9 13 12
1 2 6 5
5 6 10 9
9 10 14 13
2 3 7 6
6 7 11 10
10 11 15 14

        </DataArray>
        <DataArray type="Int32" Name="offsets" format="ascii">
4 8 12 16 20 24 28 32 36 
        </DataArray>
        <DataArray type="UInt8" Name="types" format="ascii">
9 9 9 9 9 9 9 9 9 
        </DataArray>
      </Cells>
      <PointData>
        <DataArray type="Float64" Name="u">
          0.00000000e+00 -5.46283611e+00 -6.90753946e+00 -8.50473232e+00 0.00000000e+00 -2.03713038e+00 -4.75228718e-01 3.29292852e+00 0.00000000e+00 8.43811478e+00 1.27414984e+01 2.17917151e+01 0.00000000e+00 3.79337790e+01 3.88227013e+01 5.00906518e+01 
        </DataArray>
        <DataArray type="Float64" Name="v">
          0.00000000e+00 1.37072409e+01 1.02261762e+01 5.20723038e+00 0.00000000e+00 1.56984732e+01 9.49285666e+00 3.67558376e+00 0.00000000e+00 1.37812599e+01 8.27381845e+00 2.54035558e+00 0.00000000e+00 5.50988754e+00 3.85614023e+00 2.17345813e+00 
        </DataArray>
        <DataArray type="Float64" Name="p">
          -4.76808161e+03 -4.74226946e+03 -4.71645730e+03 -4.69064515e+03 -5.02381104e+03 -4.87490849e+03 -4.72600594e+03 -4.57710339e+03 -5.27954048e+03 -5.00754753e+03 -4.73555458e+03 -4.46356163e+03 -5.53526991e+03 -5.14018657e+03 -4.74510322e+03 -4.35001987e+03 
        </DataArray>
      </PointData>
    </Piece>
    <Piece NumberOfPoints="16" NumberOfCells="9">
      <Points>
        <DataArray type="Float64" NumberOfComponents="3" format="ascii">
          2.50000000e+00 3.00000000e+00 0.00000000e+00 
3.33333325e+00 3.00000000e+00 0.00000000e+00 
4.16666651e+00 3.00000000e+00 0.00000000e+00 
5.00000000e+00 3.00000000e+00 0.00000000e+00 
2.50000000e+00 3.33333325e+00 0.00000000e+00 
3.33333325e+00 3.33333325e+00 0.00000000e+00 
4.16666651e+00 3.33333325e+00 0.00000000e+00 
5.00000000e+00 3.33333325e+00 0.00000000e+00 
2.50000000e+00 3.66666675e+00 0.00000000e+00 
3.33333325e+00 3.66666675e+00 0.00000000e+00 
4.16666651e+00 3.66666675e+00 0.00000000e+00 
5.00000000e+00 3.66666675e+00 0.00000000e+00 
2.50000000e+00 4.00000000e+00 0.00000000e+00 
3.33333325e+00 4.00000000e+00 0.00000000e+00 
4.16666651e+00 4.00000000e+00 0.00000000e+00 
5.00000000e+00 4.00000000e+00 0.00000000e+00 

        </DataArray>
      </Points>
      <Cells>
        <DataArray type="Int32" Name="connectivity" format="ascii">
0 1 5 4
4 5 9 8
8 9 13 12
1 2 6 5
5 6 10 9
9 10 14 13
2 3 7 6
6 7 11 10
10 11 15 14

        </DataArray>
        <DataArray type="Int32" Name="offsets" format="ascii">
4 8 12 16 20 24 28 32 36 
        </DataArray>
        <DataArray type="UInt8" Name="types" format="ascii">
9 9 9 9 9 9 9 9 9 
        </DataArray>
      </Cells>
      <PointData>
        <DataArray type="Float64" Name="u">
          0.00000000e+00 3.79337790e+01 3.88227013e+01 5.00906518e+01 8.27194459e+01 8.48261237e+01 8.37596940e+01 8.39401467e+01 1.48879280e+02 1.41445343e+02 1.36153250e+02 1.28073247e+02 1.94283420e+02 1.85656488e+02 1.80383185e+02 1.68898147e+02 
        </DataArray>
        <DataArray type="Float64" Name="v">
          0.00000000e+00 5.50988754e+00 3.85614023e+00 2.17345813e+00 9.10819600e-01 -7.49135625e-01 2.46628597e+00 5.71232634e+00 2.41228620e+00 -6.35595715e-01 1.49681772e+00 6.72764382e+00 4.30007566e+00 3.39512302e+00 6.27669251e+00 1.05762668e+01 
        </DataArray>
        <DataArray type="Float64" Name="p">
          -5.57008633e+03 -5.08495022e+03 -4.59981412e+03 -4.11467801e+03 -5.28793749e+03 -4.98862708e+03 -4.68931666e+03 -4.39000625e+03 -5.00578866e+03 -4.89230393e+03 -4.77881921e+03 -4.66533449e+03 -4.72363982e+03 -4.79598079e+03 -4.86832176e+03 -4.94066273e+03 
        </DataArray>
      </PointData>
    </Piece>
    <Piece NumberOfPoints="16" NumberOfCells="9">
      <Points>
        <DataArray type="Float64" NumberOfComponents="3" format="ascii">
          2.50000000e+00 4.00000000e+00 0.00000000e+00 
3.33333325e+00 4.00000000e+00 0.00000000e+00 
4.16666651e+00 4.00000000e+00 0.00000000e+00 
5.00000000e+00 4.00000000e+00 0.00000000e+00 
2.50000000e+00 4.33333349e+00 0.00000000e+00 
3.33333325e+00 4.33333349e+00 0.00000000e+00 
4.16666651e+00 4.33333349e+00 0.00000000e+00 
5.00000000e+00 4.33333349e+00 0.00000000e+00 
2.50000000e+00 4.66666651e+00 0.00000000e+00 
3.33333325e+00 4.66666651e+00 0.00000000e+00 
4.16666651e+00 4.66666651e+00 0.00000000e+00 
5.00000000e+00 4.66666651e+00 0.00000000e+00 
2.50000000e+00 5.00000000e+00 0.00000000e+00 
3.33333325e+00 5.00000000e+00 0.00000000e+00 
4.16666651e+00 5.00000000e+00 0.00000000e+00 
5.00000000e+00 5.00000000e+00 0.00000000e+00 

        </DataArray>
      </Points>
      <Cells>
        <DataArray type="Int32" Name="connectivity" format="ascii">
0 1 5 4
4 5 9 8
8 9 13 12
1 2 6 5
5 6 10 9
9 10 14 13
2 3 7 6
6 7 11 10
10 11 15 14

        </DataArray>
        <DataArray type="Int32" Name="offsets" format="ascii">
4 8 12 16 20 24 28 32 36 
        </DataArray>
        <DataArray type="UInt8" Name="types" format="ascii">
9 9 9 9 9 9 9 9 9 
        </DataArray>
      </Cells>
      <PointData>
        <DataArray type="Float64" Name="u">
          1.94283420e+02 1.85656488e+02 1.80383185e+02 1.68898147e+02 2.19115191e+02 2.10735631e+02 2.06878620e+02 1.96343918e+02 2.22332348e+02 2.15343806e+02 2.14046040e+02 2.06105473e+02 2.03506591e+02 1.98333455e+02 2.00914277e+02 1.95980849e+02 
        </DataArray>
        <DataArray type="Float64" Name="v">
          4.30007566e+00 3.39512302e+00 6.27669251e+00 1.05762668e+01 5.64983698e+00 8.00654644e+00 1.04042500e+01 1.37310537e+01 5.57825256e+00 8.85187759e+00 1.26940702e+01 1.61840687e+01 5.81770177e+00 1.20645162e+01 1.49938770e+01 1.68610909e+01 
        </DataArray>
        <DataArray type="Float64" Name="p">
          -4.61037095e+03 -4.77201073e+03 -4.93365052e+03 -5.09529030e+03 -4.85489497e+03 -5.05215742e+03 -5.24941987e+03 -5.44668232e+03 -5.09941898e+03 -5.33230411e+03 -5.56518923e+03 -5.79807435e+03 -5.34394300e+03 -5.61245079e+03 -5.88095858e+03 -6.14946637e+03 
        </DataArray>
      </PointData>
    </Piece>
    <Piece NumberOfPoints="16" NumberOfCells="9">
      <Points>
        <DataArray type="Float64" NumberOfComponents="3" format="ascii">
          2.50000000e+00 5.00000000e+00 0.00000000e+00 
3.33333325e+00 5.00000000e+00 0.00000000e+00 
4.16666651e+00 5.00000000e+00 0.00000000e+00 
5.00000000e+00 5.00000000e+00 0.00000000e+00 
2.50000000e+00 5.33333349e+00 0.00000000e+00 
3.33333325e+00 5.33333349e+00 0.00000000e+00 
4.16666651e+00 5.33333349e+00 0.00000000e+00 
5.00000000e+00 5.33333349e+00 0.00000000e+00 
2.50000000e+00 5.66666651e+00 0.00000000e+00 
3.33333325e+00 5.66666651e+00 0.00000000e+00 
4.16666651e+00 5.66666651e+00 0.00000000e+00 
5.00000000e+00 5.66666651e+00 0.00000000e+00 
2.50000000e+00 6.00000000e+00 0.00000000e+00 
3.33333325e+00 6.00000000e+00 0.00000000e+00 
4.16666651e+00 6.00000000e+00 0.00000000e+00 
5.00000000e+00 6.00000000e+00 0.00000000e+00 

        </DataArray>
      </Points>
      <Cells>
        <DataArray type="Int32" Name="connectivity" format="ascii">
0 1 5 4
4 5 9 8
8 9 13 12
1 2 6 5
5 6 10 9
9 10 14 13
2 3 7 6
6 7 11 10
10 11 15 14

        </DataArray>
        <DataArray type="Int32" Name="offsets" format="ascii">
4 8 12 16 20 24 28 32 36 
        </DataArray>
        <DataArray type="UInt8" Name="types" format="ascii">
9 9 9 9 9 9 9 9 9 
        </DataArray>
      </Cells>
      <PointData>
        <DataArray type="Float64" Name="u">
          2.03506591e+02 1.98333455e+02 2.00914277e+02 1.95980849e+02 1.62622378e+02 1.61435111e+02 1.66518608e+02 1.68501969e+02 9.91380156e+01 1.06531742e+02 1.16977010e+02 1.27891613e+02 0.00000000e+00 5.28844502e+01 6.38616667e+01 8.69920808e+01 
        </DataArray>
        <DataArray type="Float64" Name="v">
          5.81770177e+00 1.20645162e+01 1.49938770e+01 1.68610909e+01 3.83873892e+00 1.23844511e+01 1.50908624e+01 1.44784467e+01 3.96303112e+00 1.20977945e+01 1.32692276e+01 1.24803765e+01 0.00000000e+00 9.68561130e-01 5.73681474e+00 1.03914832e+01 
        </DataArray>
        <DataArray type="Float64" Name="p">
          -5.52640821e+03 -5.73995591e+03 -5.95350362e+03 -6.16705133e+03 -6.16376157e+03 -6.10660523e+03 -6.04944889e+03 -5.99229256e+03 -6.80111494e+03 -6.47325455e+03 -6.14539417e+03 -5.81753378e+03 -7.43846830e+03 -6.83990387e+03 -6.24133944e+03 -5.64277501e+03 
        </DataArray>
      </PointData>
    </Piece>
    <Piece NumberOfPoints="16" NumberOfCells="9">
      <Points>
        <DataArray type="Float64" NumberOfComponents="3" format="ascii">
          2.50000000e+00 6.00000000e+00 0.00000000e+00 
3.33333325e+00 6.00000000e+00 0.00000000e+00 
4.16666651e+00 6.00000000e+00 0.00000000e+00 
5.00000000e+00 6.00000000e+00 0.00000000e+00 
2.50000000e+00 6.33333349e+00 0.00000000e+00 
3.33333325e+00 6.33333349e+00 0.00000000e+00 
4.16666651e+00 6.33333349e+00 0.00000000e+00 
5.00000000e+00 6.33333349e+00 0.00000000e+00 
2.50000000e+00 6.66666651e+00 0.00000000e+00 
3.33333325e+00 6.66666651e+00 0.00000000e+00 
4.16666651e+00 6.66666651e+00 0.00000000e+00 
5.00000000e+00 6.66666651e+00 0.00000000e+00 
2.50000000e+00 7.00000000e+00 0.00000000e+00 
3.33333325e+00 7.00000000e+00 0.00000000e+00 
4.16666651e+00 7.00000000e+00 0.00000000e+00 
5.00000000e+00 7.00000000e+00 0.00000000e+00 

        </DataArray>
      </Points>
      <Cells>
        <DataArray type="Int32" Name="connectivity" format="ascii">
0 1 5 4
4 5 9 8
8 9 13 12
1 2 6 5
5 6 10 9
9 10 14 13
2 3 7 6
6 7 11 10
10 11 15 14

        </DataArray>
        <DataArray type="Int32" Name="offsets" format="ascii">
4 8 12 16 20 24 28 32 36 
        </DataArray>
        <DataArray type="UInt8" Name="types" format="ascii">
9 9 9 9 9 9 9 9 9 
        </DataArray>
      </Cells>
      <PointData>
        <DataArray type="Float64" Name="u">
          0.00000000e+00 5.28844502e+01 6.38616667e+01 8.69920808e+01 0.00000000e+00 1.45502551e+01 2.67386595e+01 4.80270879e+01 0.00000000e+00 1.78076115e-01 6.90959068e+00 1.99593307e+01 0.00000000e+00 -4.90488869e+00 -3.40935870e+00 -1.44839572e-01 
        </DataArray>
        <DataArray type="Float64" Name="v">
          0.00000000e+00 9.68561130e-01 5.73681474e+00 1.03914832e+01 0.00000000e+00 -1.24177949e+01 -3.81470607e+00 6.17964059e+00 0.00000000e+00 -1.68910813e+01 -8.30657570e+00 1.77819144e+00 0.00000000e+00 -1.58280566e+01 -1.16214431e+01 -3.46648873e+00 
        </DataArray>
        <DataArray type="Float64" Name="p">
          -7.30491994e+03 -6.79899648e+03 -6.29307303e+03 -5.78714957e+03 -6.99196455e+03 -6.65501940e+03 -6.31807425e+03 -5.98112910e+03 -6.67900916e+03 -6.51104231e+03 -6.34307547e+03 -6.17510863e+03 -6.36605377e+03 -6.36706523e+03 -6.36807669e+03 -6.36908816e+03 
        </DataArray>
      </PointData>
    </Piece>
    <Piece NumberOfPoints="16" NumberOfCells="9">
      <Points>
        <DataArray type="Float64" NumberOfComponents="3" format="ascii">
          2.50000000e+00 7.00000000e+00 0.00000000e+00 
3.33333325e+00 7.00000000e+00 0.00000000e+00 
4.16666651e+00 7.00000000e+00 0.00000000e+00 
5.00000000e+00 7.00000000e+00 0.00000000e+00 
2.50000000e+00 7.33333349e+00 0.00000000e+00 
3.33333325e+00 7.33333349e+00 0.00000000e+00 
4.16666651e+00 7.33333349e+00 0.00000000e+00 
5.00000000e+00 7.33333349e+00 0.00000000e+00 
2.50000000e+00 7.66666651e+00 0.00000000e+00 
3.33333325e+00 7.66666651e+00 0.00000000e+00 
4.16666651e+00 7.66666651e+00 0.00000000e+00 
5.00000000e+00 7.66666651e+00 0.00000000e+00 
2.50000000e+00 8.00000000e+00 0.00000000e+00 
3.33333325e+00 8.00000000e+00 0.00000000e+00 
4.16666651e+00 8.00000000e+00 0.00000000e+00 
5.00000000e+00 8.00000000e+00 0.00000000e+00 

        </DataArray>
      </Points>
      <Cells>
        <DataArray type="Int32" Name="connectivity" format="ascii">
0 1 5 4
4 5 9 8
8 9 13 12
1 2 6 5
5 6 10 9
9 10 14 13
2 3 7 6
6 7 11 10
10 11 15 14

        </DataArray>
        <DataArray type="Int32" Name="offsets" format="ascii">
4 8 12 16 20 24 28 32 36 
        </DataArray>
        <DataArray type="UInt8" Name="types" format="ascii">
9 9 9 9 9 9 9 9 9 
        </DataArray>
      </Cells>
      <PointData>
        <DataArray type="Float64" Name="u">
          0.00000000e+00 -4.90488869e+00 -3.40935870e+00 -1.44839572e-01 0.00000000e+00 -7.12247144e+00 -9.66054837e+00 -1.21452405e+01 0.00000000e+00 -7.69352914e+00 -1.24312087e+01 -1.85745802e+01 0.00000000e+00 -7.13435478e+00 -1.23916593e+01 -2.00737949e+01 
        </DataArray>
        <DataArray type="Float64" Name="v">
          0.00000000e+00 -1.58280566e+01 -1.16214431e+01 -3.46648873e+00 0.00000000e+00 -1.30215773e+01 -1.10206216e+01 -5.41677441e+00 0.00000000e+00 -1.01058417e+01 -9.11463746e+00 -5.44053072e+00 0.00000000e+00 -6.17980850e+00 -6.05424182e+00 -4.16159837e+00 
        </DataArray>
        <DataArray type="Float64" Name="p">
          -6.40997342e+03 -6.35628917e+03 -6.30260492e+03 -6.24892066e+03 -6.32939785e+03 -6.28095512e+03 -6.23251238e+03 -6.18406965e+03 -6.24882227e+03 -6.20562106e+03 -6.16241985e+03 -6.11921865e+03 -6.16824670e+03 -6.13028701e+03 -6.09232732e+03 -6.05436764e+03 
        </DataArray>
      </PointData>
    </Piece>
    <Piece NumberOfPoints="16" NumberOfCells="9">
      <Points>
        <DataArray type="Float64" NumberOfComponents="3" format="ascii">
          2.50000000e+00 8.00000000e+00 0.00000000e+00 
3.33333325e+00 8.00000000e+00 0.00000000e+00 
4.16666651e+00 8.00000000e+00 0.00000000e+00 
5.00000000e+00 8.00000000e+00 0.00000000e+00 
2.50000000e+00 8.33333302e+00 0.00000000e+00 
3.33333325e+00 8.33333302e+00 0.00000000e+00 
4.16666651e+00 8.33333302e+00 0.00000000e+00 
5.00000000e+00 8.33333302e+00 0.00000000e+00 
2.50000000e+00 8.66666698e+00 0.00000000e+00 
3.33333325e+00 8.66666698e+00 0.00000000e+00 
4.16666651e+00 8.66666698e+00 0.00000000e+00 
5.00000000e+00 8.66666698e+00 0.00000000e+00 
2.50000000e+00 9.00000000e+00 0.00000000e+00 
3.33333325e+00 9.00000000e+00 0.00000000e+00 
4.16666651e+00 9.00000000e+00 0.00000000e+00 
5.00000000e+00 9.00000000e+00 0.00000000e+00 

        </DataArray>
      </Points>
      <Cells>
        <DataArray type="Int32" Name="connectivity" format="ascii">
0 1 5 4
4 5 9 8
8 9 13 12
1 2 6 5
5 6 10 9
9 10 14 13
2 3 7 6
6 7 11 10
10 11 15 14

        </DataArray>
        <DataArray type="Int32" Name="offsets" format="ascii">
4 8 12 16 20 24 28 32 36 
        </DataArray>
        <DataArray type="UInt8" Name="types" format="ascii">
9 9 9 9 9 9 9 9 9 
        </DataArray>
      </Cells>
      <PointData>
        <DataArray type="Float64" Name="u">
          0.00000000e+00 -7.13435478e+00 -1.23916593e+01 -2.00737949e+01 0.00000000e+00 -5.63452929e+00 -9.94051487e+00 -1.71906972e+01 0.00000000e+00 -3.24225075e+00 -5.58735953e+00 -1.01711622e+01 0.00000000e+00 0.00000000e+00 0.00000000e+00 0.00000000e+00 
        </DataArray>
        <DataArray type="Float64" Name="v">
          0.00000000e+00 -6.17980850e+00 -6.05424182e+00 -4.16159837e+00 0.00000000e+00 -2.83373282e+00 -2.90369201e+00 -2.14010100e+00 0.00000000e+00 -9.70748521e-01 -1.05087332e+00 -8.56670493e-01 0.00000000e+00 0.00000000e+00 0.00000000e+00 0.00000000e+00 
        </DataArray>
        <DataArray type="Float64" Name="p">
          -6.18171916e+03 -6.13379517e+03 -6.08587119e+03 -6.03794721e+03 -6.19313628e+03 -6.14606988e+03 -6.09900348e+03 -6.05193707e+03 -6.20455341e+03 -6.15834458e+03 -6.11213576e+03 -6.06592693e+03 -6.21597053e+03 -6.17061929e+03 -6.12526804e+03 -6.07991679e+03 
        </DataArray>
      </PointData>
    </Piece>
    <Piece NumberOfPoints="16" NumberOfCells="9">
      <Points>
        <DataArray type="Float64" NumberOfComponents="3" format="ascii">
          5.00000000e+00 0.00000000e+00 0.00000000e+00 
5.83333349e+00 0.00000000e+00 0.00000000e+00 
6.66666651e+00 0.00000000e+00 0.00000000e+00 
7.50000000e+00 0.00000000e+00 0.00000000e+00 
5.00000000e+00 3.33333343e-01 0.00000000e+00 
5.83333349e+00 3.33333343e-01 0.00000000e+00 
6.66666651e+00 3.33333343e-01 0.00000000e+00 
7.50000000e+00 3.33333343e-01 0.00000000e+00 
5.00000000e+00 6.66666687e-01 0.00000000e+00 
5.83333349e+00 6.66666687e-01 0.00000000e+00 
6.66666651e+00 6.66666687e-01 0.00000000e+00 
7.50000000e+00 6.66666687e-01 0.00000000e+00 
5.00000000e+00 1.00000000e+00 0.00000000e+00 
5.83333349e+00 1.00000000e+00 0.00000000e+00 
6.66666651e+00 1.00000000e+00 0.00000000e+00 
7.50000000e+00 1.00000000e+00 0.00000000e+00 

        </DataArray>
      </Points>
      <Cells>
        <DataArray type="Int32" Name="connectivity" format="ascii">
0 1 5 4
4 5 9 8
8 9 13 12
1 2 6 5
5 6 10 9
9 10 14 13
2 3 7 6
6 7 11 10
10 11 15 14

        </DataArray>
        <DataArray type="Int32" Name="offsets" format="ascii">
4 8 12 16 20 24 28 32 36 
        </DataArray>
        <DataArray type="UInt8" Name="types" format="ascii">
9 9 9 9 9 9 9 9 9 
        </DataArray>
      </Cells>
      <PointData>
        <DataArray type="Float64" Name="u">