<?xml version="1.0"?>
<VTKFile type="UnstructuredGrid" version="0.1" byte_order="LittleEndian">
  <UnstructuredGrid>
    <Piece NumberOfPoints="16" NumberOfCells="9">
      <Points>
        <DataArray type="Float64" NumberOfComponents="3" format="ascii">
          0.00000000e+00 3.00000000e+00 0.00000000e+00 
8.33333313e-01 3.00000000e+00 0.00000000e+00 
1.66666663e+00 3.00000000e+00 0.00000000e+00 
2.50000000e+00 3.00000000e+00 0.00000000e+00 
0.00000000e+00 3.33333325e+00 0.00000000e+00 
8.33333313e-01 3.33333325e+00 0.00000000e+00 
1.66666663e+00 3.33333325e+00 0.00000000e+00 
2.50000000e+00 3.33333325e+00 0.00000000e+00 
0.00000000e+00 3.66666675e+00 0.00000000e+00 
8.33333313e-01 3.66666675e+00 0.00000000e+00 
1.66666663e+00 3.66666675e+00 0.00000000e+00 
2.50000000e+00 3.66666675e+00 0.00000000e+00 
0.00000000e+00 4.00000000e+00 0.00000000e+00 
8.33333313e-01 4.00000000e+00 0.00000000e+00 
1.66666663e+00 4.00000000e+00 0.00000000e+00 
2.50000000e+00 4.00000000e+00 0.00000000e+00 

        </DataArray>
      </Points>
      <Cells>
        <DataArray type="Int32" Name="connectivity" format="ascii">
0 1 5 4
4 5 9 8
8 9 13 12
1 2 6 5
5 6 10 9
9 10 14 13
2 3 7 6
6 7 11 10
10 11 15 14

        </DataArray>
        <DataArray type="Int32" Name="offsets" format="ascii">
4 8 12 16 20 24 28 32 36 
        </DataArray>
        <DataArray type="UInt8" Name="types" format="ascii">
9 9 9 9 9 9 9 9 9 
        </DataArray>
      </Cells>
      <PointData>
        <DataArray type="Float64" Name="u">
          0.00000000e+00 0.00000000e+00 0.00000000e+00 0.00000000e+00 8.88888889e+01 8.70635768e+01 8.74648785e+01 8.22154353e+01 1.55555556e+02 1.53120812e+02 1.53974719e+02 1.48541978e+02 2.00000000e+02 1.97621953e+02 1.98599730e+02 1.94101271e+02 
        </DataArray>
        <DataArray type="Float64" Name="v">
          0.00000000e+00 0.00000000e+00 0.00000000e+00 0.00000000e+00 0.00000000e+00 5.69578787e-01 1.42774554e+00 1.08079298e+00 0.00000000e+00 5.63462691e-01 1.59864729e+00 2.59125571e+00 0.00000000e+00 1.51722086e+00 3.22489591e+00 4.55757864e+00 
        </DataArray>
        <DataArray type="Float64" Name="p">
          -1.83232616e+03 -2.97150407e+03 -4.11068198e+03 -5.24985989e+03 -1.86609058e+03 -3.00892069e+03 -4.15175081e+03 -5.29458093e+03 -1.89985499e+03 -3.04633732e+03 -4.19281964e+03 -5.33930196e+03 -1.93361941e+03 -3.08375394e+03 -4.23388847e+03 -5.38402300e+03 
        </DataArray>
      </PointData>
    </Piece>
    <Piece NumberOfPoints="16" NumberOfCells="9">
      <Points>
        <DataArray type="Float64" NumberOfComponents="3" format="ascii">
          0.00000000e+00 4.00000000e+00 0.00000000e+00 
8.33333313e-01 4.00000000e+00 0.00000000e+00 
1.66666663e+00 4.00000000e+00 0.00000000e+00 
2.50000000e+00 4.00000000e+00 0.00000000e+00 
0.00000000e+00 4.33333349e+00 0.00000000e+00 
8.33333313e-01 4.33333349e+00 0.00000000e+00 
1.66666663e+00 4.33333349e+00 0.00000000e+00 
2.50000000e+00 4.33333349e+00 0.00000000e+00 
0.00000000e+00 4.66666651e+00 0.00000000e+00 
8.33333313e-01 4.66666651e+00 0.00000000e+00 
1.66666663e+00 4.66666651e+00 0.00000000e+00 
2.50000000e+00 4.66666651e+00 0.00000000e+00 
0.00000000e+00 5.00000000e+00 0.00000000e+00 
8.33333313e-01 5.00000000e+00 0.00000000e+00 
1.66666663e+00 5.00000000e+00 0.00000000e+00 
2.50000000e+00 5.00000000e+00 0.00000000e+00 

        </DataArray>
      </Points>
      <Cells>
        <DataArray type="Int32" Name="connectivity" format="ascii">
0 1 5 4
4 5 9 8
8 9 13 12
1 2 6 5
5 6 10 9
9 10 14 13
2 3 7 6
6 7 11 10
10 11 15 14

        </DataArray>
        <DataArray type="Int32" Name="offsets" format="ascii">
4 8 12 16 20 24 28 32 36 
        </DataArray>
        <DataArray type="UInt8" Name="types" format="ascii">
9 9 9 9 9 9 9 9 9 
        </DataArray>
      </Cells>
      <PointData>
        <DataArray type="Float64" Name="u">
          2.00000000e+02 1.97621953e+02 1.98599730e+02 1.94101271e+02 2.22222222e+02 2.20633911e+02 2.21504676e+02 2.19081323e+02 2.22222222e+02 2.21727824e+02 2.22722557e+02 2.22444547e+02 2.00000000e+02 2.00660125e+02 2.01838972e+02 2.03758927e+02 
        </DataArray>
        <DataArray type="Float64" Name="v">
          0.00000000e+00 1.51722086e+00 3.22489591e+00 4.55757864e+00 0.00000000e+00 2.15596014e+00 3.94785314e+00 5.91042658e+00 0.00000000e+00 2.15798607e+00 4.13229128e+00 5.83928009e+00 0.00000000e+00 2.07196313e+00 3.63011728e+00 6.03589698e+00 
        </DataArray>
        <DataArray type="Float64" Name="p">
          -1.93219446e+03 -3.10133644e+03 -4.27047843e+03 -5.43962041e+03 -2.12148420e+03 -3.28273211e+03 -4.44398003e+03 -5.60522795e+03 -2.31077394e+03 -3.46412778e+03 -4.61748163e+03 -5.77083548e+03 -2.50006368e+03 -3.64552346e+03 -4.79098324e+03 -5.93644301e+03 
        </DataArray>
      </PointData>
    </Piece>
    <Piece NumberOfPoints="16" NumberOfCells="9">
      <Points>
        <DataArray type="Float64" NumberOfComponents="3" format="ascii">
          0.00000000e+00 5.00000000e+00 0.00000000e+00 
8.33333313e-01 5.00000000e+00 0.00000000e+00 
1.66666663e+00 5.00000000e+00 0.00000000e+00 
2.50000000e+00 5.00000000e+00 0.00000000e+00 
0.00000000e+00 5.33333349e+00 0.00000000e+00 
8.33333313e-01 5.33333349e+00 0.00000000e+00 
1.66666663e+00 5.33333349e+00 0.00000000e+00 
2.50000000e+00 5.33333349e+00 0.00000000e+00 
0.00000000e+00 5.66666651e+00 0.00000000e+00 
8.33333313e-01 5.66666651e+00 0.00000000e+00 
1.66666663e+00 5.66666651e+00 0.00000000e+00 
2.50000000e+00 5.66666651e+00 0.00000000e+00 
0.00000000e+00 6.00000000e+00 0.00000000e+00 
8.33333313e-01 6.00000000e+00 0.00000000e+00 
1.66666663e+00 6.00000000e+00 0.00000000e+00 
2.50000000e+00 6.00000000e+00 0.00000000e+00 

        </DataArray>
      </Points>
      <Cells>
        <DataArray type="Int32" Name="connectivity" format="ascii">
0 1 5 4
4 5 9 8
8 9 13 12
1 2 6 5
5 6 10 9
9 10 14 13
2 3 7 6
6 7 11 10
10 11 15 14

        </DataArray>
        <DataArray type="Int32" Name="offsets" format="ascii">
4 8 12 16 20 24 28 32 36 
        </DataArray>
        <DataArray type="UInt8" Name="types" format="ascii">
9 9 9 9 9 9 9 9 9 
        </DataArray>
      </Cells>
      <PointData>
        <DataArray type="Float64" Name="u">
          2.00000000e+02 2.00660125e+02 2.01838972e+02 2.03758927e+02 1.55555556e+02 1.57757650e+02 1.58259338e+02 1.62932953e+02 8.88888889e+01 9.19647699e+01 9.13247667e+01 9.95436311e+01 0.00000000e+00 0.00000000e+00 0.00000000e+00 0.00000000e+00 
        </DataArray>
        <DataArray type="Float64" Name="v">
          0.00000000e+00 2.07196313e+00 3.63011728e+00 6.03589698e+00 0.00000000e+00 9.27620849e-01 2.09709111e+00 3.94647573e+00 0.00000000e+00 1.06450745e+00 1.51945244e+00 4.04573982e+00 0.00000000e+00 0.00000000e+00 0.00000000e+00 0.00000000e+00 
        </DataArray>
        <DataArray type="Float64" Name="p">
          -2.53844541e+03 -3.68514712e+03 -4.83184883e+03 -5.97855053e+03 -2.56041057e+03 -3.72965826e+03 -4.89890595e+03 -6.06815365e+03 -2.58237572e+03 -3.77416940e+03 -4.96596308e+03 -6.15775676e+03 -2.60434087e+03 -3.81868054e+03 -5.03302021e+03 -6.24735988e+03 
        </DataArray>
      </PointData>
    </Piece>
    <Piece NumberOfPoints="16" NumberOfCells="9">
      <Points>
        <DataArray type="Float64" NumberOfComponents="3" format="ascii">
          2.50000000e+00 0.00000000e+00 0.00000000e+00 
3.33333325e+00 0.00000000e+00 0.00000000e+00 
4.16666651e+00 0.00000000e+00 0.00000000e+00 
5.00000000e+00 0.00000000e+00 0.00000000e+00 
2.50000000e+00 3.33333343e-01 0.00000000e+00 
3.33333325e+00 3.33333343e-01 0.00000000e+00 
4.16666651e+00 3.33333343e-01 0.00000000e+00 
5.00000000e+00 3.33333343e-01 0.00000000e+00 
2.50000000e+00 6.66666687e-01 0.00000000e+00 
3.33333325e+00 6.66666687e-01 0.00000000e+00 
4.16666651e+00 6.66666687e-01 0.00000000e+00 
5.00000000e+00 6.66666687e-01 0.00000000e+00 
2.50000000e+00 1.00000000e+00 0.00000000e+00 
3.33333325e+00 1.00000000e+00 0.00000000e+00 
4.16666651e+00 1.00000000e+00 0.00000000e+00 
5.00000000e+00 1.00000000e+00 0.00000000e+00 

        </DataArray>
      </Points>
      <Cells>
        <DataArray type="Int32" Name="connectivity" format="ascii">
0 1 5 4
4 5 9 8
8 9 13 12
1 2 6 5
5 6 10 9
9 10 14 13
2 3 7 6
6 7 11 10
10 11 15 14

        </DataArray>
        <DataArray type="Int32" Name="offsets" format="ascii">
4 8 12 16 20 24 28 32 36 
        </DataArray>
        <DataArray type="UInt8" Name="types" format="ascii">
9 9 9 9 9 9 9 9 9 
        </DataArray>
      </Cells>
      <PointData>
        <DataArray type="Float64" Name="u">
          0.00000000e+00 0.00000000e+00 0.00000000e+00 0.00000000e+00 0.00000000e+00 -2.28441341e+00 -4.04126128e+00 -7.13339186e+00 0.00000000e+00 -4.10266897e+00 -7.42701331e+00 -1.23459315e+01 0.00000000e+00 -5.45707111e+00 -9.78711490e+00 -1.54902856e+01 
        </DataArray>
        <DataArray type="Float64" Name="v">
          0.00000000e+00 0.00000000e+00 0.00000000e+00 0.00000000e+00 0.00000000e+00 6.77279365e-01 7.34353588e-01 4.75997380e-01 0.00000000e+00 2.07088815e+00 2.07417877e+00 1.36274441e+00 0.00000000e+00 4.60782740e+00 4.29728110e+00 2.85597681e+00 
        </DataArray>
        <DataArray type="Float64" Name="p">
          -4.64140633e+03 -4.61682612e+03 -4.59224590e+03 -4.56766569e+03 -4.63145811e+03 -4.60685947e+03 -4.58226084e+03 -4.55766220e+03 -4.62150989e+03 -4.59689283e+03 -4.57227577e+03 -4.54765872e+03 -4.61156167e+03 -4.58692619e+03 -4.56229071e+03 -4.53765523e+03 
        </DataArray>
      </PointData>
    </Piece>
    <Piece NumberOfPoints="16" NumberOfCells="9">
      <Points>
        <DataArray type="Float64" NumberOfComponents="3" format="ascii">
          2.50000000e+00 1.00000000e+00 0.00000000e+00 
3.33333325e+00 1.00000000e+00 0.00000000e+00 
4.16666651e+00 1.00000000e+00 0.00000000e+00 
5.00000000e+00 1.00000000e+00 0.00000000e+00 
2.50000000e+00 1.33333337e+00 0.00000000e+00 
3.33333325e+00 1.33333337e+00 0.00000000e+00 
4.16666651e+00 1.33333337e+00 0.00000000e+00 
5.00000000e+00 1.33333337e+00 0.00000000e+00 
2.50000000e+00 1.66666663e+00 0.00000000e+00 
3.33333325e+00 1.66666663e+00 0.00000000e+00 
4.16666651e+00 1.66666663e+00 0.00000000e+00 
5.00000000e+00 1.66666663e+00 0.00000000e+00 
2.50000000e+00 2.00000000e+00 0.00000000e+00 
3.33333325e+00 2.00000000e+00 0.00000000e+00 
4.16666651e+00 2.00000000e+00 0.00000000e+00 
5.00000000e+00 2.00000000e+00 0.00000000e+00 

        </DataArray>
      </Points>
      <Cells>
        <DataArray type="Int32" Name="connectivity" format="ascii">
0 1 5 4
4 5 9 8
8 9 13 12
1 2 6 5
5 6 10 9
9 10 14 13
2 3 7 6
6 7 11 10
10 11 15 14

        </DataArray>
        <DataArray type="Int32" Name="offsets" format="ascii">
4 8 12 16 20 24 28 32 36 
        </DataArray>
        <DataArray type="UInt8" Name="types" format="ascii">
9 9 9 9 9 9 9 9 9 
        </DataArray>
      </Cells>
      <PointData>
        <DataArray type="Float64" Name="u">
          0.00000000e+00 -5.45707111e+00 -9.78711490e+00 -1.54902856e+01 0.00000000e+00 -6.32892652e+00 -1.08332187e+01 -1.63632002e+01 0.00000000e+00 -6.49020646e+00 -1.01330647e+01 -1.43496971e+01 0.00000000e+00 -5.44317496e+00 -6.99985582e+00 -8.70570528e+00 
        </DataArray>
        <DataArray type="Float64" Name="v">
          0.00000000e+00 4.60782740e+00 4.29728110e+00 2.85597681e+00 0.00000000e+00 7.83605089e+00 6.73575432e+00 4.24190563e+00 0.00000000e+00 1.04728101e+01 8.60348413e+00 5.07676137e+00 0.00000000e+00 1.35105352e+01 1.01138910e+01 5.23189657e+00 
        </DataArray>
        <DataArray type="Float64" Name="p">
          -4.59854180e+03 -4.58001216e+03 -4.56148253e+03 -4.54295289e+03 -4.66407057e+03 -4.63324753e+03 -4.60242450e+03 -4.57160146e+03 -4.72959933e+03 -4.68648290e+03 -4.64336647e+03 -4.60025003e+03 -4.79512810e+03 -4.73971827e+03 -4.68430843e+03 -4.62889860e+03 
        </DataArray>
      </PointData>
    </Piece>
    <Piece NumberOfPoints="16" NumberOfCells="9">
      <Points>
        <DataArray type="Float64" NumberOfComponents="3" format="ascii">
          2.50000000e+00 2.00000000e+00 0.00000000e+00 
3.33333325e+00 2.00000000e+00 0.00000000e+00 
4.16666651e+00 2.00000000e+00 0.00000000e+00 
5.00000000e+00 2.00000000e+00 0.00000000e+00 
2.50000000e+00 2.33333325e+00 0.00000000e+00 
3.33333325e+00 2.33333325e+00 0.00000000e+00 
4.16666651e+00 2.33333325e+00 0.00000000e+00 
5.00000000e+00 2.33333325e+00 0.00000000e+00 
2.50000000e+00 2.66666675e+00 0.00000000e+00 
3.33333325e+00 2.66666675e+00 0.00000000e+00 
4.16666651e+00 2.66666675e+00 0.00000000e+00 
5.00000000e+00 2.66666675e+00 0.00000000e+00 
2.50000000e+00 3.00000000e+00 0.00000000e+00 
3.33333325e+00 3.00000000e+00 0.00000000e+00 
4.16666651e+00 3.00000000e+00 0.00000000e+00 
5.00000000e+00 3.00000000e+00 0.00000000e+00 

        </DataArray>
      </Points>
      <Cells>
        <DataArray type="Int32" Name="connectivity" format="ascii">
0 1 5 4
4 5 9 8
8 9 13 12
1 2 6 5
5 6 10 9
9 10 14 13
2 3 7 6
6 7 11 10
10 11 15 14

        </DataArray>
        <DataArray type="Int32" Name="offsets" format="ascii">
4 8 12 16 20 24 28 32 36 
        </DataArray>
        <DataArray type="UInt8" Name="types" format="ascii">
9 9 9 9 9 9 9 9 9 
        </DataArray>
      </Cells>
      <PointData>
        <DataArray type="Float64" Name="u">
          0.00000000e+00 -5.44317496e+00 -6.99985582e+00 -8.70570528e+00 0.00000000e+00 -2.13861515e+00 -7.62128672e-01 2.77066711e+00 0.00000000e+00 8.09418623e+00 1.21633763e+01 2.09094336e+01 0.00000000e+00 3.72598949e+01 3.79281655e+01 4.88712405e+01 
        </DataArray>
        <DataArray type="Float64" Name="v">
          0.00000000e+00 1.35105352e+01 1.01138910e+01 5.23189657e+00 0.00000000e+00 1.55316552e+01 9.44886310e+00 3.78251375e+00 0.00000000e+00 1.37358616e+01 8.34018104e+00 2.70801804e+00 0.00000000e+00 5.69050658e+00 4.05599379e+00 2.38333934e+00 
        </DataArray>
        <DataArray type="Float64" Name="p">
          -4.77128796e+03 -4.74835726e+03 -4.72542657e+03 -4.70249587e+03 -5.01615601e+03 -4.87571366e+03 -4.73527131e+03 -4.59482896e+03 -5.26102407e+03 -5.00307006e+03 -4.74511605e+03 -4.48716204e+03 -5.50589212e+03 -5.13042646e+03 -4.75496079e+03 -4.37949513e+03 
        </DataArray>
      </PointData>
    </Piece>
    <Piece NumberOfPoints="16" NumberOfCells="9">
      <Points>
        <DataArray type="Float64" NumberOfComponents="3" format="ascii">
          2.50000000e+00 3.00000000e+00 0.00000000e+00 
3.33333325e+00 3.00000000e+00 0.00000000e+00 
4.16666651e+00 3.00000000e+00 0.00000000e+00 
5.00000000e+00 3.00000000e+00 0.00000000e+00 
2.50000000e+00 3.33333325e+00 0.00000000e+00 
3.33333325e+00 3.33333325e+00 0.00000000e+00 
4.16666651e+00 3.33333325e+00 0.00000000e+00 
5.00000000e+00 3.33333325e+00 0.00000000e+00 
2.50000000e+00 3.66666675e+00 0.00000000e+00 
3.33333325e+00 3.66666675e+00 0.00000000e+00 
4.16666651e+00 3.66666675e+00 0.00000000e+00 
5.00000000e+00 3.66666675e+00 0.00000000e+00 
2.50000000e+00 4.00000000e+00 0.00000000e+00 
3.33333325e+00 4.00000000e+00 0.00000000e+00 
4.16666651e+00 4.00000000e+00 0.00000000e+00 
5.00000000e+00 4.00000000e+00 0.00000000e+00 

        </DataArray>
      </Points>
      <Cells>
        <DataArray type="Int32" Name="connectivity" format="ascii">
0 1 5 4
4 5 9 8
8 9 13 12
1 2 6 5
5 6 10 9
9 10 14 13
2 3 7 6
6 7 11 10
10 11 15 14

        </DataArray>
        <DataArray type="Int32" Name="offsets" format="ascii">
4 8 12 16 20 24 28 32 36 
        </DataArray>
        <DataArray type="UInt8" Name="types" format="ascii">
9 9 9 9 9 9 9 9 9 
        </DataArray>
      </Cells>
      <PointData>
        <DataArray type="Float64" Name="u">
          0.00000000e+00 3.72598949e+01 3.79281655e+01 4.88712405e+01 8.22154353e+01 8.41276956e+01 8.27682888e+01 8.26317996e+01 1.48541978e+02 1.40998549e+02 1.35468329e+02 1.27102329e+02 1.94101271e+02 1.85494661e+02 1.80072875e+02 1.68461774e+02 
        </DataArray>
        <DataArray type="Float64" Name="v">
          0.00000000e+00 5.69050658e+00 4.05599379e+00 2.38333934e+00 1.08079298e+00 -4.05908586e-01 2.84362696e+00 6.05587254e+00 2.59125571e+00 -2.65933243e-01 1.89952069e+00 7.11533622e+00 4.55757864e+00 3.82169728e+00 6.79612590e+00 1.11470367e+01 
        </DataArray>
        <DataArray type="Float64" Name="p">
          -5.54051510e+03 -5.07559365e+03 -4.61067220e+03 -4.14575075e+03 -5.27450255e+03 -4.98843762e+03 -4.70237268e+03 -4.41630775e+03 -5.00848999e+03 -4.90128158e+03 -4.79407316e+03 -4.68686475e+03 -4.74247744e+03 -4.81412554e+03 -4.88577364e+03 -4.95742175e+03 
        </DataArray>
      </PointData>
    </Piece>
    <Piece NumberOfPoints="16" NumberOfCells="9">
      <Points>
        <DataArray type="Float64" NumberOfComponents="3" format="ascii">
          2.50000000e+00 4.00000000e+00 0.00000000e+00 
3.33333325e+00 4.00000000e+00 0.00000000e+00 
4.16666651e+00 4.00000000e+00 0.00000000e+00 
5.00000000e+00 4.00000000e+00 0.00000000e+00 
2.50000000e+00 4.33333349e+00 0.00000000e+00 
3.33333325e+00 4.33333349e+00 0.00000000e+00 
4.16666651e+00 4.33333349e+00 0.00000000e+00 
5.00000000e+00 4.33333349e+00 0.00000000e+00 
2.50000000e+00 4.66666651e+00 0.00000000e+00 
3.33333325e+00 4.66666651e+00 0.00000000e+00 
4.16666651e+00 4.66666651e+00 0.00000000e+00 
5.00000000e+00 4.66666651e+00 0.00000000e+00 
2.50000000e+00 5.00000000e+00 0.00000000e+00 
3.33333325e+00 5.00000000e+00 0.00000000e+00 
4.16666651e+00 5.00000000e+00 0.00000000e+00 
5.00000000e+00 5.00000000e+00 0.00000000e+00 

        </DataArray>
      </Points>
      <Cells>
        <DataArray type="Int32" Name="connectivity" format="ascii">
0 1 5 4
4 5 9 8
8 9 13 12
1 2 6 5
5 6 10 9
9 10 14 13
2 3 7 6
6 7 11 10
10 11 15 14

        </DataArray>
        <DataArray type="Int32" Name="offsets" format="ascii">
4 8 12 16 20 24 28 32 36 
        </DataArray>
        <DataArray type="UInt8" Name="types" format="ascii">
9 9 9 9 9 9 9 9 9 
        </DataArray>
      </Cells>
      <PointData>
        <DataArray type="Float64" Name="u">
          1.94101271e+02 1.85494661e+02 1.80072875e+02 1.68461774e+02 2.19081323e+02 2.10805630e+02 2.06925605e+02 1.96389600e+02 2.22444547e+02 2.15640774e+02 2.14431343e+02 2.06636608e+02 2.03758927e+02 1.98771587e+02 2.01574953e+02 1.96888173e+02 
        </DataArray>
        <DataArray type="Float64" Name="v">
          4.55757864e+00 3.82169728e+00 6.79612590e+00 1.11470367e+01 5.91042658e+00 8.41993727e+00 1.09578832e+01 1.44042273e+01 5.83928009e+00 9.20951781e+00 1.31753535e+01 1.68269532e+01 6.03589698e+00 1.23377847e+01 1.54115458e+01 1.74778918e+01 
        </DataArray>
        <DataArray type="Float64" Name="p">
          -4.63455296e+03 -4.79386027e+03 -4.95316758e+03 -5.11247488e+03 -4.88952190e+03 -5.08557702e+03 -5.28163213e+03 -5.47768725e+03 -5.14449084e+03 -5.37729376e+03 -5.61009669e+03 -5.84289961e+03 -5.39945979e+03 -5.66901051e+03 -5.93856124e+03 -6.20811197e+03 
        </DataArray>
      </PointData>
    </Piece>
    <Piece NumberOfPoints="16" NumberOfCells="9">
      <Points>
        <DataArray type="Float64" NumberOfComponents="3" format="ascii">
          2.50000000e+00 5.00000000e+00 0.00000000e+00 
3.33333325e+00 5.00000000e+00 0.00000000e+00 
4.16666651e+00 5.00000000e+00 0.00000000e+00 
5.00000000e+00 5.00000000e+00 0.00000000e+00 
2.50000000e+00 5.33333349e+00 0.00000000e+00 
3.33333325e+00 5.33333349e+00 0.00000000e+00 
4.16666651e+00 5.33333349e+00 0.00000000e+00 
5.00000000e+00 5.33333349e+00 0.00000000e+00 
2.50000000e+00 5.66666651e+00 0.00000000e+00 
3.33333325e+00 5.66666651e+00 0.00000000e+00 
4.16666651e+00 5.66666651e+00 0.00000000e+00 
5.00000000e+00 5.66666651e+00 0.00000000e+00 
2.50000000e+00 6.00000000e+00 0.00000000e+00 
3.33333325e+00 6.00000000e+00 0.00000000e+00 
4.16666651e+00 6.00000000e+00 0.00000000e+00 
5.00000000e+00 6.00000000e+00 0.00000000e+00 

        </DataArray>
      </Points>
      <Cells>
        <DataArray type="Int32" Name="connectivity" format="ascii">
0 1 5 4
4 5 9 8
8 9 13 12
1 2 6 5
5 6 10 9
9 10 14 13
2 3 7 6
6 7 11 10
10 11 15 14

        </DataArray>
        <DataArray type="Int32" Name="offsets" format="ascii">
4 8 12 16 20 24 28 32 36 
        </DataArray>
        <DataArray type="UInt8" Name="types" format="ascii">
9 9 9 9 9 9 9 9 9 
        </DataArray>
      </Cells>
      <PointData>
        <DataArray type="Float64" Name="u">
          2.03758927e+02 1.98771587e+02 2.01574953e+02 1.96888173e+02 1.62932953e+02 1.62004614e+02 1.67347239e+02 1.69618063e+02 9.95436311e+01 1.07027986e+02 1.17738973e+02 1.28907354e+02 0.00000000e+00 5.29665941e+01 6.42026503e+01 8.75713421e+01 
        </DataArray>
        <DataArray type="Float64" Name="v">
          6.03589698e+00 1.23377847e+01 1.54115458e+01 1.74778918e+01 3.94647573e+00 1.24896834e+01 1.53414315e+01 1.49230411e+01 4.04573982e+00 1.22454193e+01 1.35567078e+01 1.28785643e+01 0.00000000e+00 1.00859696e+00 5.86134881e+00 1.06131078e+01 
        </DataArray>
        <DataArray type="Float64" Name="p">
          -5.57830002e+03 -5.79661362e+03 -6.01492721e+03 -6.23324081e+03 -6.21191679e+03 -6.16407905e+03 -6.11624132e+03 -6.06840358e+03 -6.84553357e+03 -6.53154449e+03 -6.21755542e+03 -5.90356635e+03 -7.47915035e+03 -6.89900993e+03 -6.31886952e+03 -5.73872911e+03 
        </DataArray>
      </PointData>
    </Piece>
    <Piece NumberOfPoints="16" NumberOfCells="9">
      <Points>
        <DataArray type="Float64" NumberOfComponents="3" format="ascii">
          2.50000000e+00 6.00000000e+00 0.00000000e+00 
3.33333325e+00 6.00000000e+00 0.00000000e+00 
4.16666651e+00 6.00000000e+00 0.00000000e+00 
5.00000000e+00 6.00000000e+00 0.00000000e+00 
2.50000000e+00 6.33333349e+00 0.00000000e+00 
3.33333325e+00 6.33333349e+00 0.00000000e+00 
4.16666651e+00 6.33333349e+00 0.00000000e+00 
5.00000000e+00 6.33333349e+00 0.00000000e+00 
2.50000000e+00 6.66666651e+00 0.00000000e+00 
3.33333325e+00 6.66666651e+00 0.00000000e+00 
4.16666651e+00 6.66666651e+00 0.00000000e+00 
5.00000000e+00 6.66666651e+00 0.00000000e+00 
2.50000000e+00 7.00000000e+00 0.00000000e+00 
3.33333325e+00 7.00000000e+00 0.00000000e+00 
4.16666651e+00 7.00000000e+00 0.00000000e+00 
5.00000000e+00 7.00000000e+00 0.00000000e+00 

        </DataArray>
      </Points>
      <Cells>
        <DataArray type="Int32" Name="connectivity" format="ascii">
0 1 5 4
4 5 9 8
8 9 13 12
1 2 6 5
5 6 10 9
9 10 14 13
2 3 7 6
6 7 11 10
10 11 15 14

        </DataArray>
        <DataArray type="Int32" Name="offsets" format="ascii">
4 8 12 16 20 24 28 32 36 
        </DataArray>
        <DataArray type="UInt8" Name="types" format="ascii">
9 9 9 9 9 9 9 9 9 
        </DataArray>
      </Cells>
      <PointData>
        <DataArray type="Float64" Name="u">
          0.00000000e+00 5.29665941e+01 6.42026503e+01 8.75713421e+01 0.00000000e+00 1.44351197e+01 2.66915580e+01 4.82378298e+01 0.00000000e+00 1.35003253e-01 6.82350160e+00 2.00113674e+01 0.00000000e+00 -4.87697373e+00 -3.45408159e+00 -1.56597774e-01 
        </DataArray>
        <DataArray type="Float64" Name="v">
          0.00000000e+00 1.00859696e+00 5.86134881e+00 1.06131078e+01 0.00000000e+00 -1.23786248e+01 -3.79953896e+00 6.25440833e+00 0.00000000e+00 -1.68154900e+01 -8.29317194e+00 1.77824877e+00 0.00000000e+00 -1.57372264e+01 -1.16313476e+01 -3.53626719e+00 
        </DataArray>
        <DataArray type="Float64" Name="p">
          -7.34078014e+03 -6.85314829e+03 -6.36551645e+03 -5.87788461e+03 -7.03757512e+03 -6.71449762e+03 -6.39142011e+03 -6.06834260e+03 -6.73437011e+03 -6.57584694e+03 -6.41732376e+03 -6.25880059e+03 -6.43116510e+03 -6.43719626e+03 -6.44322742e+03 -6.44925858e+03 
        </DataArray>
      </PointData>
    </Piece>
    <Piece NumberOfPoints="16" NumberOfCells="9">
      <Points>
        <DataArray type="Float64" NumberOfComponents="3" format="ascii">
          2.50000000e+00 7.00000000e+00 0.00000000e+00 
3.33333325e+00 7.00000000e+00 0.00000000e+00 
4.16666651e+00 7.00000000e+00 0.00000000e+00 
5.00000000e+00 7.00000000e+00 0.00000000e+00 
2.50000000e+00 7.33333349e+00 0.00000000e+00 
3.33333325e+00 7.33333349e+00 0.00000000e+00 
4.16666651e+00 7.33333349e+00 0.00000000e+00 
5.00000000e+00 7.33333349e+00 0.00000000e+00 
2.50000000e+00 7.66666651e+00 0.00000000e+00 
3.33333325e+00 7.66666651e+00 0.00000000e+00 
4.16666651e+00 7.66666651e+00 0.00000000e+00 
5.00000000e+00 7.66666651e+00 0.00000000e+00 
2.50000000e+00 8.00000000e+00 0.00000000e+00 
3.33333325e+00 8.00000000e+00 0.00000000e+00 
4.16666651e+00 8.00000000e+00 0.00000000e+00 
5.00000000e+00 8.00000000e+00 0.00000000e+00 

        </DataArray>
      </Points>
      <Cells>
        <DataArray type="Int32" Name="connectivity" format="ascii">
0 1 5 4
4 5 9 8
8 9 13 12
1 2 6 5
5 6 10 9
9 10 14 13
2 3 7 6
6 7 11 10
10 11 15 14

        </DataArray>
        <DataArray type="Int32" Name="offsets" format="ascii">
4 8 12 16 20 24 28 32 36 
        </DataArray>
        <DataArray type="UInt8" Name="types" format="ascii">
9 9 9 9 9 9 9 9 9 
        </DataArray>
      </Cells>
      <PointData>
        <DataArray type="Float64" Name="u">
          0.00000000e+00 -4.87697373e+00 -3.45408159e+00 -1.56597774e-01 0.00000000e+00 -7.06153831e+00 -9.67692791e+00 -1.21590170e+01 0.00000000e+00 -7.62079899e+00 -1.24217866e+01 -1.85718837e+01 0.00000000e+00 -7.05972309e+00 -1.23598356e+01 -2.00442942e+01 
        </DataArray>
        <DataArray type="Float64" Name="v">
          0.00000000e+00 -1.57372264e+01 -1.16313476e+01 -3.53626719e+00 0.00000000e+00 -1.29362724e+01 -1.10190288e+01 -5.48691886e+00 0.00000000e+00 -1.00322592e+01 -9.10415232e+00 -5.49913488e+00 0.00000000e+00 -6.12719316e+00 -6.03457973e+00 -4.19923294e+00 
        </DataArray>
        <DataArray type="Float64" Name="p">
          -6.47441305e+03 -6.42647229e+03 -6.37853153e+03 -6.33059077e+03 -6.39728053e+03 -6.35354066e+03 -6.30980079e+03 -6.26606093e+03 -6.32014801e+03 -6.28060903e+03 -6.24107006e+03 -6.20153108e+03 -6.24301549e+03 -6.20767741e+03 -6.17233932e+03 -6.13700124e+03 
        </DataArray>
      </PointData>
    </Piece>
    <Piece NumberOfPoints="16" NumberOfCells="9">
      <Points>
        <DataArray type="Float64" NumberOfComponents="3" format="ascii">
          2.50000000e+00 8.00000000e+00 0.00000000e+00 
3.33333325e+00 8.00000000e+00 0.00000000e+00 
4.16666651e+00 8.00000000e+00 0.00000000e+00 
5.00000000e+00 8.00000000e+00 0.00000000e+00 
2.50000000e+00 8.33333302e+00 0.00000000e+00 
3.33333325e+00 8.33333302e+00 0.00000000e+00 
4.16666651e+00 8.33333302e+00 0.00000000e+00 
5.00000000e+00 8.33333302e+00 0.00000000e+00 
2.50000000e+00 8.66666698e+00 0.00000000e+00 
3.33333325e+00 8.66666698e+00 0.00000000e+00 
4.16666651e+00 8.66666698e+00 0.00000000e+00 
5.00000000e+00 8.66666698e+00 0.00000000e+00 
2.50000000e+00 9.00000000e+00 0.00000000e+00 
3.33333325e+00 9.00000000e+00 0.00000000e+00 
4.16666651e+00 9.00000000e+00 0.00000000e+00 
5.00000000e+00 9.00000000e+00 0.00000000e+00 

        </DataArray>
      </Points>
      <Cells>
        <DataArray type="Int32" Name="connectivity" format="ascii">
0 1 5 4
4 5 9 8
8 9 13 12
1 2 6 5
5 6 10 9
9 10 14 13
2 3 7 6
6 7 11 10
10 11 15 14

        </DataArray>
        <DataArray type="Int32" Name="offsets" format="ascii">
4 8 12 16 20 24 28 32 36 
        </DataArray>
        <DataArray type="UInt8" Name="types" format="ascii">
9 9 9 9 9 9 9 9 9 
        </DataArray>
      </Cells>
      <PointData>
        <DataArray type="Float64" Name="u">
          0.00000000e+00 -7.05972309e+00 -1.23598356e+01 -2.00442942e+01 0.00000000e+00 -5.56381414e+00 -9.89235618e+00 -1.71288591e+01 0.00000000e+00 -3.19131138e+00 -5.54675471e+00 -1.00935025e+01 0.00000000e+00 0.00000000e+00 0.00000000e+00 0.00000000e+00 
        </DataArray>
        <DataArray type="Float64" Name="v">
          0.00000000e+00 -6.12719316e+00 -6.03457973e+00 -4.19923294e+00 0.00000000e+00 -2.80608852e+00 -2.88299885e+00 -2.16269888e+00 0.00000000e+00 -9.59849117e-01 -1.03860074e+00 -8.65752542e-01 0.00000000e+00 0.00000000e+00 0.00000000e+00 0.00000000e+00 
        </DataArray>
        <DataArray type="Float64" Name="p">
          -6.25610285e+03 -6.21110466e+03 -6.16610647e+03 -6.12110827e+03 -6.26694524e+03 -6.22296620e+03 -6.17898716e+03 -6.13500813e+03 -6.27778763e+03 -6.23482775e+03 -6.19186786e+03 -6.14890798e+03 -6.28863001e+03 -6.24668929e+03 -6.20474856e+03 -6.16280784e+03 
        </DataArray>
      </PointData>
    </Piece>
    <Piece NumberOfPoints="16" NumberOfCells="9">
      <Points>
        <DataArray type="Float64" NumberOfComponents="3" format="ascii">
          5.00000000e+00 0.00000000e+00 0.00000000e+00 
5.83333349e+00 0.00000000e+00 0.00000000e+00 
6.66666651e+00 0.00000000e+00 0.00000000e+00 
7.50000000e+00 0.00000000e+00 0.00000000e+00 
5.00000000e+00 3.33333343e-01 0.00000000e+00 
5.83333349e+00 3.33333343e-01 0.00000000e+00 
6.66666651e+00 3.33333343e-01 0.00000000e+00 
7.50000000e+00 3.33333343e-01 0.00000000e+00 
5.00000000e+00 6.66666687e-01 0.00000000e+00 
5.83333349e+00 6.66666687e-01 0.00000000e+00 
6.66666651e+00 6.66666687e-01 0.00000000e+00 
7.50000000e+00 6.66666687e-01 0.00000000e+00 
5.00000000e+00 1.00000000e+00 0.00000000e+00 
5.83333349e+00 1.00000000e+00 0.00000000e+00 
6.66666651e+00 1.00000000e+00 0.00000000e+00 
7.50000000e+00 1.00000000e+00 0.00000000e+00 

        </DataArray>
      </Points>
      <Cells>
        <DataArray type="Int32" Name="connectivity" format="ascii">
0 1 5 4
4 5 9 8
8 9 13 12
1 2 6 5
5 6 10 9
9 10 14 13
2 3 7 6
6 7 11 10
10 11 15 14

        </DataArray>
        <DataArray type="Int32" Name="offsets" format="ascii">
4 8 12 16 20 24 28 32 36 
        </DataArray>
        <DataArray type="UInt8" Name="types" format="ascii">
9 9 9 9 9 9 9 9 9 
        </DataArray>
      </Cells>
      <PointData>
        <DataArray type="Float64" Name="u">