<?xml version="1.0"?>
<VTKFile type="UnstructuredGrid" version="0.1" byte_order="LittleEndian">
  <UnstructuredGrid>
    <Piece NumberOfPoints="16" NumberOfCells="9">
      <Points>
        <DataArray type="Float64" NumberOfComponents="3" format="ascii">
          0.00000000e+00 3.00000000e+00 0.00000000e+00 
8.33333313e-01 3.00000000e+00 0.00000000e+00 
1.66666663e+00 3.00000000e+00 0.00000000e+00 
2.50000000e+00 3.00000000e+00 0.00000000e+00 
0.00000000e+00 3.33333325e+00 0.00000000e+00 
8.33333313e-01 3.33333325e+00 0.00000000e+00 
1.66666663e+00 3.33333325e+00 0.00000000e+00 
2.50000000e+00 3.33333325e+00 0.00000000e+00 
0.00000000e+00 3.66666675e+00 0.00000000e+00 
8.33333313e-01 3.66666675e+00 0.00000000e+00 
1.66666663e+00 3.66666675e+00 0.00000000e+00 
2.50000000e+00 3.66666675e+00 0.00000000e+00 
0.00000000e+00 4.00000000e+00 0.00000000e+00 
8.33333313e-01 4.00000000e+00 0.00000000e+00 
1.66666663e+00 4.00000000e+00 0.00000000e+00 
2.50000000e+00 4.00000000e+00 0.00000000e+00 

        </DataArray>
      </Points>
      <Cells>
        <DataArray type="Int32" Name="connectivity" format="ascii">
0 1 5 4
4 5 9 8
8 9 13 12
1 2 6 5
5 6 10 9
9 10 14 13
2 3 7 6
6 7 11 10
10 11 15 14

        </DataArray>
        <DataArray type="Int32" Name="offsets" format="ascii">
4 8 12 16 20 24 28 32 36 
        </DataArray>
        <DataArray type="UInt8" Name="types" format="ascii">
9 9 9 9 9 9 9 9 9 
        </DataArray>
      </Cells>
      <PointData>
        <DataArray type="Float64" Name="u">
          0.00000000e+00 0.00000000e+00 0.00000000e+00 0.00000000e+00 8.88888889e+01 9.13362263e+01 9.09294671e+01 9.77097691e+01 1.55555556e+02 1.57196016e+02 1.57895487e+02 1.61464474e+02 2.00000000e+02 2.00227345e+02 2.01597830e+02 2.02602881e+02 
        </DataArray>
        <DataArray type="Float64" Name="v">
          0.00000000e+00 0.00000000e+00 0.00000000e+00 0.00000000e+00 0.00000000e+00 -8.44226403e-01 -1.14952251e+00 -3.64497880e+00 0.00000000e+00 -7.85336212e-01 -1.69857304e+00 -3.41642503e+00 0.00000000e+00 -1.67448492e+00 -2.89785226e+00 -4.99989915e+00 
        </DataArray>
        <DataArray type="Float64" Name="p">
          -1.97029424e+03 -3.33448503e+03 -4.69867582e+03 -6.06286661e+03 -1.95939445e+03 -3.30016855e+03 -4.64094264e+03 -5.98171674e+03 -1.94849465e+03 -3.26585206e+03 -4.58320947e+03 -5.90056688e+03 -1.93759486e+03 -3.23153558e+03 -4.52547630e+03 -5.81941702e+03 
        </DataArray>
      </PointData>
    </Piece>
    <Piece NumberOfPoints="16" NumberOfCells="9">
      <Points>
        <DataArray type="Float64" NumberOfComponents="3" format="ascii">
          0.00000000e+00 4.00000000e+00 0.00000000e+00 
8.33333313e-01 4.00000000e+00 0.00000000e+00 
1.66666663e+00 4.00000000e+00 0.00000000e+00 
2.50000000e+00 4.00000000e+00 0.00000000e+00 
0.00000000e+00 4.33333349e+00 0.00000000e+00 
8.33333313e-01 4.33333349e+00 0.00000000e+00 
1.66666663e+00 4.33333349e+00 0.00000000e+00 
2.50000000e+00 4.33333349e+00 0.00000000e+00 
0.00000000e+00 4.66666651e+00 0.00000000e+00 
8.33333313e-01 4.66666651e+00 0.00000000e+00 
1.66666663e+00 4.66666651e+00 0.00000000e+00 
2.50000000e+00 4.66666651e+00 0.00000000e+00 
0.00000000e+00 5.00000000e+00 0.00000000e+00 
8.33333313e-01 5.00000000e+00 0.00000000e+00 
1.66666663e+00 5.00000000e+00 0.00000000e+00 
2.50000000e+00 5.00000000e+00 0.00000000e+00 

        </DataArray>
      </Points>
      <Cells>
        <DataArray type="Int32" Name="connectivity" format="ascii">
0 1 5 4
4 5 9 8
8 9 13 12
1 2 6 5
5 6 10 9
9 10 14 13
2 3 7 6
6 7 11 10
10 11 15 14

        </DataArray>
        <DataArray type="Int32" Name="offsets" format="ascii">
4 8 12 16 20 24 28 32 36 
        </DataArray>
        <DataArray type="UInt8" Name="types" format="ascii">
9 9 9 9 9 9 9 9 9 
        </DataArray>
      </Cells>
      <PointData>
        <DataArray type="Float64" Name="u">
          2.00000000e+02 2.00227345e+02 2.01597830e+02 2.02602881e+02 2.22222222e+02 2.21457836e+02 2.22641198e+02 2.21943873e+02 2.22222222e+02 2.20600460e+02 2.21674706e+02 2.19275801e+02 2.00000000e+02 1.97838725e+02 1.99017649e+02 1.94984530e+02 
        </DataArray>
        <DataArray type="Float64" Name="v">
          0.00000000e+00 -1.67448492e+00 -2.89785226e+00 -4.99989915e+00 0.00000000e+00 -1.67039852e+00 -3.24705206e+00 -4.61298100e+00 0.00000000e+00 -1.65417139e+00 -3.04308760e+00 -4.68292246e+00 0.00000000e+00 -1.07678184e+00 -2.42944308e+00 -3.36347589e+00 
        </DataArray>
        <DataArray type="Float64" Name="p">
          -1.90169037e+03 -3.19532146e+03 -4.48895256e+03 -5.78258365e+03 -1.75824016e+03 -3.05360135e+03 -4.34896254e+03 -5.64432373e+03 -1.61478995e+03 -2.91188123e+03 -4.20897252e+03 -5.50606380e+03 -1.47133974e+03 -2.77016112e+03 -4.06898250e+03 -5.36780387e+03 
        </DataArray>
      </PointData>
    </Piece>
    <Piece NumberOfPoints="16" NumberOfCells="9">
      <Points>
        <DataArray type="Float64" NumberOfComponents="3" format="ascii">
          0.00000000e+00 5.00000000e+00 0.00000000e+00 
8.33333313e-01 5.00000000e+00 0.00000000e+00 
1.66666663e+00 5.00000000e+00 0.00000000e+00 
2.50000000e+00 5.00000000e+00 0.00000000e+00 
0.00000000e+00 5.33333349e+00 0.00000000e+00 
8.33333313e-01 5.33333349e+00 0.00000000e+00 
1.66666663e+00 5.33333349e+00 0.00000000e+00 
2.50000000e+00 5.33333349e+00 0.00000000e+00 
0.00000000e+00 5.66666651e+00 0.00000000e+00 
8.33333313e-01 5.66666651e+00 0.00000000e+00 
1.66666663e+00 5.66666651e+00 0.00000000e+00 
2.50000000e+00 5.66666651e+00 0.00000000e+00 
0.00000000e+00 6.00000000e+00 0.00000000e+00 
8.33333313e-01 6.00000000e+00 0.00000000e+00 
1.66666663e+00 6.00000000e+00 0.00000000e+00 
2.50000000e+00 6.00000000e+00 0.00000000e+00 

        </DataArray>
      </Points>
      <Cells>
        <DataArray type="Int32" Name="connectivity" format="ascii">
0 1 5 4
4 5 9 8
8 9 13 12
1 2 6 5
5 6 10 9
9 10 14 13
2 3 7 6
6 7 11 10
10 11 15 14

        </DataArray>
        <DataArray type="Int32" Name="offsets" format="ascii">
4 8 12 16 20 24 28 32 36 
        </DataArray>
        <DataArray type="UInt8" Name="types" format="ascii">
9 9 9 9 9 9 9 9 9 
        </DataArray>
      </Cells>
      <PointData>
        <DataArray type="Float64" Name="u">
          2.00000000e+02 1.97838725e+02 1.99017649e+02 1.94984530e+02 1.55555556e+02 1.53606085e+02 1.54534540e+02 1.50114316e+02 8.88888889e+01 8.76716571e+01 8.80019559e+01 8.44334927e+01 0.00000000e+00 0.00000000e+00 0.00000000e+00 0.00000000e+00 
        </DataArray>
        <DataArray type="Float64" Name="v">
          0.00000000e+00 -1.07678184e+00 -2.42944308e+00 -3.36347589e+00 0.00000000e+00 -3.75116266e-01 -1.18788750e+00 -1.76780345e+00 0.00000000e+00 -3.46723261e-01 -1.04744147e+00 -3.34826209e-01 0.00000000e+00 0.00000000e+00 0.00000000e+00 0.00000000e+00 
        </DataArray>
        <DataArray type="Float64" Name="p">
          -1.47839944e+03 -2.76018309e+03 -4.04196673e+03 -5.32375037e+03 -1.45022064e+03 -2.73249984e+03 -4.01477904e+03 -5.29705825e+03 -1.42204183e+03 -2.70481660e+03 -3.98759136e+03 -5.27036612e+03 -1.39386303e+03 -2.67713335e+03 -3.96040367e+03 -5.24367400e+03 
        </DataArray>
      </PointData>
    </Piece>
    <Piece NumberOfPoints="16" NumberOfCells="9">
      <Points>
        <DataArray type="Float64" NumberOfComponents="3" format="ascii">
          2.50000000e+00 0.00000000e+00 0.00000000e+00 
3.33333325e+00 0.00000000e+00 0.00000000e+00 
4.16666651e+00 0.00000000e+00 0.00000000e+00 
5.00000000e+00 0.00000000e+00 0.00000000e+00 
2.50000000e+00 3.33333343e-01 0.00000000e+00 
3.33333325e+00 3.33333343e-01 0.00000000e+00 
4.16666651e+00 3.33333343e-01 0.00000000e+00 
5.00000000e+00 3.33333343e-01 0.00000000e+00 
2.50000000e+00 6.66666687e-01 0.00000000e+00 
3.33333325e+00 6.66666687e-01 0.00000000e+00 
4.16666651e+00 6.66666687e-01 0.00000000e+00 
5.00000000e+00 6.66666687e-01 0.00000000e+00 
2.50000000e+00 1.00000000e+00 0.00000000e+00 
3.33333325e+00 1.00000000e+00 0.00000000e+00 
4.16666651e+00 1.00000000e+00 0.00000000e+00 
5.00000000e+00 1.00000000e+00 0.00000000e+00 

        </DataArray>
      </Points>
      <Cells>
        <DataArray type="Int32" Name="connectivity" format="ascii">
0 1 5 4
4 5 9 8
8 9 13 12
1 2 6 5
5 6 10 9
9 10 14 13
2 3 7 6
6 7 11 10
10 11 15 14

        </DataArray>
        <DataArray type="Int32" Name="offsets" format="ascii">
4 8 12 16 20 24 28 32 36 
        </DataArray>
        <DataArray type="UInt8" Name="types" format="ascii">
9 9 9 9 9 9 9 9 9 
        </DataArray>
      </Cells>
      <PointData>
        <DataArray type="Float64" Name="u">
          0.00000000e+00 0.00000000e+00 0.00000000e+00 0.00000000e+00 0.00000000e+00 -3.35422261e+00 -5.65292098e+00 -1.02863048e+01 0.00000000e+00 -5.78558653e+00 -9.99969477e+00 -1.72105193e+01 0.00000000e+00 -7.29459778e+00 -1.24065448e+01 -2.00219807e+01 
        </DataArray>
        <DataArray type="Float64" Name="v">
          0.00000000e+00 0.00000000e+00 0.00000000e+00 0.00000000e+00 0.00000000e+00 9.92206292e-01 1.07259723e+00 8.18649837e-01 0.00000000e+00 2.88788478e+00 2.93186433e+00 2.05460832e+00 0.00000000e+00 6.28008312e+00 6.04944089e+00 4.01640915e+00 
        </DataArray>
        <DataArray type="Float64" Name="p">
          -5.95857549e+03 -5.90360986e+03 -5.84864423e+03 -5.79367859e+03 -5.94551728e+03 -5.89015702e+03 -5.83479675e+03 -5.77943648e+03 -5.93245907e+03 -5.87670417e+03 -5.82094927e+03 -5.76519437e+03 -5.91940087e+03 -5.86325133e+03 -5.80710180e+03 -5.75095226e+03 
        </DataArray>
      </PointData>
    </Piece>
    <Piece NumberOfPoints="16" NumberOfCells="9">
      <Points>
        <DataArray type="Float64" NumberOfComponents="3" format="ascii">
          2.50000000e+00 1.00000000e+00 0.00000000e+00 
3.33333325e+00 1.00000000e+00 0.00000000e+00 
4.16666651e+00 1.00000000e+00 0.00000000e+00 
5.00000000e+00 1.00000000e+00 0.00000000e+00 
2.50000000e+00 1.33333337e+00 0.00000000e+00 
3.33333325e+00 1.33333337e+00 0.00000000e+00 
4.16666651e+00 1.33333337e+00 0.00000000e+00 
5.00000000e+00 1.33333337e+00 0.00000000e+00 
2.50000000e+00 1.66666663e+00 0.00000000e+00 
3.33333325e+00 1.66666663e+00 0.00000000e+00 
4.16666651e+00 1.66666663e+00 0.00000000e+00 
5.00000000e+00 1.66666663e+00 0.00000000e+00 
2.50000000e+00 2.00000000e+00 0.00000000e+00 
3.33333325e+00 2.00000000e+00 0.00000000e+00 
4.16666651e+00 2.00000000e+00 0.00000000e+00 
5.00000000e+00 2.00000000e+00 0.00000000e+00 

        </DataArray>
      </Points>
      <Cells>
        <DataArray type="Int32" Name="connectivity" format="ascii">
0 1 5 4
4 5 9 8
8 9 13 12
1 2 6 5
5 6 10 9
9 10 14 13
2 3 7 6
6 7 11 10
10 11 15 14

        </DataArray>
        <DataArray type="Int32" Name="offsets" format="ascii">
4 8 12 16 20 24 28 32 36 
        </DataArray>
        <DataArray type="UInt8" Name="types" format="ascii">
9 9 9 9 9 9 9 9 9 
        </DataArray>
      </Cells>
      <PointData>
        <DataArray type="Float64" Name="u">
          0.00000000e+00 -7.29459778e+00 -1.24065448e+01 -2.00219807e+01 0.00000000e+00 -7.86065028e+00 -1.24174705e+01 -1.85268411e+01 0.00000000e+00 -7.27883205e+00 -9.63443217e+00 -1.21828917e+01 0.00000000e+00 -4.99923003e+00 -3.38315530e+00 -3.61923170e-01 
        </DataArray>
        <DataArray type="Float64" Name="v">
          0.00000000e+00 6.28008312e+00 6.04944089e+00 4.01640915e+00 0.00000000e+00 1.02465252e+01 9.06526173e+00 5.24540464e+00 0.00000000e+00 1.31876697e+01 1.09443968e+01 5.21769651e+00 0.00000000e+00 1.60177953e+01 1.15403630e+01 3.33574711e+00 
        </DataArray>
        <DataArray type="Float64" Name="p">
          -5.90474621e+03 -5.85932243e+03 -5.81389865e+03 -5.76847488e+03 -5.99563803e+03 -5.94132686e+03 -5.88701568e+03 -5.83270451e+03 -6.08652986e+03 -6.02333129e+03 -5.96013271e+03 -5.89693414e+03 -6.17742168e+03 -6.10533571e+03 -6.03324975e+03 -5.96116378e+03 
        </DataArray>
      </PointData>
    </Piece>
    <Piece NumberOfPoints="16" NumberOfCells="9">
      <Points>
        <DataArray type="Float64" NumberOfComponents="3" format="ascii">
          2.50000000e+00 2.00000000e+00 0.00000000e+00 
3.33333325e+00 2.00000000e+00 0.00000000e+00 
4.16666651e+00 2.00000000e+00 0.00000000e+00 
5.00000000e+00 2.00000000e+00 0.00000000e+00 
2.50000000e+00 2.33333325e+00 0.00000000e+00 
3.33333325e+00 2.33333325e+00 0.00000000e+00 
4.16666651e+00 2.33333325e+00 0.00000000e+00 
5.00000000e+00 2.33333325e+00 0.00000000e+00 
2.50000000e+00 2.66666675e+00 0.00000000e+00 
3.33333325e+00 2.66666675e+00 0.00000000e+00 
4.16666651e+00 2.66666675e+00 0.00000000e+00 
5.00000000e+00 2.66666675e+00 0.00000000e+00 
2.50000000e+00 3.00000000e+00 0.00000000e+00 
3.33333325e+00 3.00000000e+00 0.00000000e+00 
4.16666651e+00 3.00000000e+00 0.00000000e+00 
5.00000000e+00 3.00000000e+00 0.00000000e+00 

        </DataArray>
      </Points>
      <Cells>
        <DataArray type="Int32" Name="connectivity" format="ascii">
0 1 5 4
4 5 9 8
8 9 13 12
1 2 6 5
5 6 10 9
9 10 14 13
2 3 7 6
6 7 11 10
10 11 15 14

        </DataArray>
        <DataArray type="Int32" Name="offsets" format="ascii">
4 8 12 16 20 24 28 32 36 
        </DataArray>
        <DataArray type="UInt8" Name="types" format="ascii">
9 9 9 9 9 9 9 9 9 
        </DataArray>
      </Cells>
      <PointData>
        <DataArray type="Float64" Name="u">
          0.00000000e+00 -4.99923003e+00 -3.38315530e+00 -3.61923170e-01 0.00000000e+00 2.42736590e-01 6.95712411e+00 1.93585392e+01 0.00000000e+00 1.47252629e+01 2.65288483e+01 4.67845615e+01 0.00000000e+00 5.23493482e+01 6.23802219e+01 8.45631891e+01 
        </DataArray>
        <DataArray type="Float64" Name="v">
          0.00000000e+00 1.60177953e+01 1.15403630e+01 3.33574711e+00 0.00000000e+00 1.70620567e+01 8.36310692e+00 -1.60915172e+00 0.00000000e+00 1.25510209e+01 3.97017798e+00 -5.71758258e+00 0.00000000e+00 -7.20225004e-01 -5.15074983e+00 -9.42908054e+00 
        </DataArray>
        <DataArray type="Float64" Name="p">
          -6.13219068e+03 -6.11626318e+03 -6.10033567e+03 -6.08440817e+03 -6.47309316e+03 -6.27612561e+03 -6.07915805e+03 -5.88219050e+03 -6.81399563e+03 -6.43598804e+03 -6.05798044e+03 -5.67997284e+03 -7.15489811e+03 -6.59585046e+03 -6.03680282e+03 -5.47775517e+03 
        </DataArray>
      </PointData>
    </Piece>
    <Piece NumberOfPoints="16" NumberOfCells="9">
      <Points>
        <DataArray type="Float64" NumberOfComponents="3" format="ascii">
          2.50000000e+00 3.00000000e+00 0.00000000e+00 
3.33333325e+00 3.00000000e+00 0.00000000e+00 
4.16666651e+00 3.00000000e+00 0.00000000e+00 
5.00000000e+00 3.00000000e+00 0.00000000e+00 
2.50000000e+00 3.33333325e+00 0.00000000e+00 
3.33333325e+00 3.33333325e+00 0.00000000e+00 
4.16666651e+00 3.33333325e+00 0.00000000e+00 
5.00000000e+00 3.33333325e+00 0.00000000e+00 
2.50000000e+00 3.66666675e+00 0.00000000e+00 
3.33333325e+00 3.66666675e+00 0.00000000e+00 
4.16666651e+00 3.66666675e+00 0.00000000e+00 
5.00000000e+00 3.66666675e+00 0.00000000e+00 
2.50000000e+00 4.00000000e+00 0.00000000e+00 
3.33333325e+00 4.00000000e+00 0.00000000e+00 
4.16666651e+00 4.00000000e+00 0.00000000e+00 
5.00000000e+00 4.00000000e+00 0.00000000e+00 

        </DataArray>
      </Points>
      <Cells>
        <DataArray type="Int32" Name="connectivity" format="ascii">
0 1 5 4
4 5 9 8
8 9 13 12
1 2 6 5
5 6 10 9
9 10 14 13
2 3 7 6
6 7 11 10
10 11 15 14

        </DataArray>
        <DataArray type="Int32" Name="offsets" format="ascii">
4 8 12 16 20 24 28 32 36 
        </DataArray>
        <DataArray type="UInt8" Name="types" format="ascii">
9 9 9 9 9 9 9 9 9 
        </DataArray>
      </Cells>
      <PointData>
        <DataArray type="Float64" Name="u">
          0.00000000e+00 5.23493482e+01 6.23802219e+01 8.45631891e+01 9.77097691e+01 1.04735403e+02 1.14184507e+02 1.24164727e+02 1.61464474e+02 1.59434163e+02 1.63563429e+02 1.64570284e+02 2.02602881e+02 1.96837770e+02 1.98620805e+02 1.92919573e+02 
        </DataArray>
        <DataArray type="Float64" Name="v">
          0.00000000e+00 -7.20225004e-01 -5.15074983e+00 -9.42908054e+00 -3.64497880e+00 -1.14443900e+01 -1.21034865e+01 -1.09146571e+01 -3.41642503e+00 -1.18306583e+01 -1.39914848e+01 -1.26987994e+01 -4.99989915e+00 -1.09709093e+01 -1.33519809e+01 -1.44983093e+01 
        </DataArray>
        <DataArray type="Float64" Name="p">
          -7.27082733e+03 -6.61943360e+03 -5.96803988e+03 -5.31664615e+03 -6.63036136e+03 -6.26129894e+03 -5.89223653e+03 -5.52317411e+03 -5.98989540e+03 -5.90316429e+03 -5.81643318e+03 -5.72970207e+03 -5.34942944e+03 -5.54502963e+03 -5.74062983e+03 -5.93623002e+03 
        </DataArray>
      </PointData>
    </Piece>
    <Piece NumberOfPoints="16" NumberOfCells="9">
      <Points>
        <DataArray type="Float64" NumberOfComponents="3" format="ascii">
          2.50000000e+00 4.00000000e+00 0.00000000e+00 
3.33333325e+00 4.00000000e+00 0.00000000e+00 
4.16666651e+00 4.00000000e+00 0.00000000e+00 
5.00000000e+00 4.00000000e+00 0.00000000e+00 
2.50000000e+00 4.33333349e+00 0.00000000e+00 
3.33333325e+00 4.33333349e+00 0.00000000e+00 
4.16666651e+00 4.33333349e+00 0.00000000e+00 
5.00000000e+00 4.33333349e+00 0.00000000e+00 
2.50000000e+00 4.66666651e+00 0.00000000e+00 
3.33333325e+00 4.66666651e+00 0.00000000e+00 
4.16666651e+00 4.66666651e+00 0.00000000e+00 
5.00000000e+00 4.66666651e+00 0.00000000e+00 
2.50000000e+00 5.00000000e+00 0.00000000e+00 
3.33333325e+00 5.00000000e+00 0.00000000e+00 
4.16666651e+00 5.00000000e+00 0.00000000e+00 
5.00000000e+00 5.00000000e+00 0.00000000e+00 

        </DataArray>
      </Points>
      <Cells>
        <DataArray type="Int32" Name="connectivity" format="ascii">
0 1 5 4
4 5 9 8
8 9 13 12
1 2 6 5
5 6 10 9
9 10 14 13
2 3 7 6
6 7 11 10
10 11 15 14

        </DataArray>
        <DataArray type="Int32" Name="offsets" format="ascii">
4 8 12 16 20 24 28 32 36 
        </DataArray>
        <DataArray type="UInt8" Name="types" format="ascii">
9 9 9 9 9 9 9 9 9 
        </DataArray>
      </Cells>
      <PointData>
        <DataArray type="Float64" Name="u">
          2.02602881e+02 1.96837770e+02 1.98620805e+02 1.92919573e+02 2.21943873e+02 2.14414743e+02 2.12812329e+02 2.04464136e+02 2.19275801e+02 2.10628657e+02 2.06893430e+02 1.96457703e+02 1.94984530e+02 1.86372770e+02 1.81675247e+02 1.70700583e+02 
        </DataArray>
        <DataArray type="Float64" Name="v">
          -4.99989915e+00 -1.09709093e+01 -1.33519809e+01 -1.44983093e+01 -4.61298100e+00 -7.49888539e+00 -1.08526737e+01 -1.37262986e+01 -4.68292246e+00 -6.48690771e+00 -8.35934602e+00 -1.12091110e+01 -3.36347589e+00 -1.87117412e+00 -4.37646758e+00 -8.41617327e+00 
        </DataArray>
        <DataArray type="Float64" Name="p">
          -5.15868885e+03 -5.42080710e+03 -5.68292534e+03 -5.94504358e+03 -4.95396991e+03 -5.18551936e+03 -5.41706882e+03 -5.64861828e+03 -4.74925096e+03 -4.95023163e+03 -5.15121230e+03 -5.35219297e+03 -4.54453202e+03 -4.71494390e+03 -4.88535578e+03 -5.05576766e+03 
        </DataArray>
      </PointData>
    </Piece>
    <Piece NumberOfPoints="16" NumberOfCells="9">
      <Points>
        <DataArray type="Float64" NumberOfComponents="3" format="ascii">
          2.50000000e+00 5.00000000e+00 0.00000000e+00 
3.33333325e+00 5.00000000e+00 0.00000000e+00 
4.16666651e+00 5.00000000e+00 0.00000000e+00 
5.00000000e+00 5.00000000e+00 0.00000000e+00 
2.50000000e+00 5.33333349e+00 0.00000000e+00 
3.33333325e+00 5.33333349e+00 0.00000000e+00 
4.16666651e+00 5.33333349e+00 0.00000000e+00 
5.00000000e+00 5.33333349e+00 0.00000000e+00 
2.50000000e+00 5.66666651e+00 0.00000000e+00 
3.33333325e+00 5.66666651e+00 0.00000000e+00 
4.16666651e+00 5.66666651e+00 0.00000000e+00 
5.00000000e+00 5.66666651e+00 0.00000000e+00 
2.50000000e+00 6.00000000e+00 0.00000000e+00 
3.33333325e+00 6.00000000e+00 0.00000000e+00 
4.16666651e+00 6.00000000e+00 0.00000000e+00 
5.00000000e+00 6.00000000e+00 0.00000000e+00 

        </DataArray>
      </Points>
      <Cells>
        <DataArray type="Int32" Name="connectivity" format="ascii">
0 1 5 4
4 5 9 8
8 9 13 12
1 2 6 5
5 6 10 9
9 10 14 13
2 3 7 6
6 7 11 10
10 11 15 14

        </DataArray>
        <DataArray type="Int32" Name="offsets" format="ascii">
4 8 12 16 20 24 28 32 36 
        </DataArray>
        <DataArray type="UInt8" Name="types" format="ascii">
9 9 9 9 9 9 9 9 9 
        </DataArray>
      </Cells>
      <PointData>
        <DataArray type="Float64" Name="u">
          1.94984530e+02 1.86372770e+02 1.81675247e+02 1.70700583e+02 1.50114316e+02 1.43085972e+02 1.38665278e+02 1.31576002e+02 8.44334927e+01 8.71720784e+01 8.71443166e+01 8.83987171e+01 0.00000000e+00 4.01107908e+01 4.18095830e+01 5.42073066e+01 
        </DataArray>
        <DataArray type="Float64" Name="v">
          -3.36347589e+00 -1.87117412e+00 -4.37646758e+00 -8.41617327e+00 -1.76780345e+00 1.94413104e+00 -5.68001706e-03 -5.20173550e+00 -3.34826209e-01 1.96334190e+00 -1.07846743e+00 -4.39019872e+00 0.00000000e+00 -4.82694865e+00 -3.06795916e+00 -1.31948766e+00 
        </DataArray>
        <DataArray type="Float64" Name="p">
          -4.67461752e+03 -4.75127680e+03 -4.82793608e+03 -4.90459536e+03 -5.01170909e+03 -4.87978959e+03 -4.74787009e+03 -4.61595059e+03 -5.34880066e+03 -5.00830238e+03 -4.66780410e+03 -4.32730582e+03 -5.68589223e+03 -5.13681517e+03 -4.58773811e+03 -4.03866105e+03 
        </DataArray>
      </PointData>
    </Piece>
    <Piece NumberOfPoints="16" NumberOfCells="9">
      <Points>
        <DataArray type="Float64" NumberOfComponents="3" format="ascii">
          2.50000000e+00 6.00000000e+00 0.00000000e+00 
3.33333325e+00 6.00000000e+00 0.00000000e+00 
4.16666651e+00 6.00000000e+00 0.00000000e+00 
5.00000000e+00 6.00000000e+00 0.00000000e+00 
2.50000000e+00 6.33333349e+00 0.00000000e+00 
3.33333325e+00 6.33333349e+00 0.00000000e+00 
4.16666651e+00 6.33333349e+00 0.00000000e+00 
5.00000000e+00 6.33333349e+00 0.00000000e+00 
2.50000000e+00 6.66666651e+00 0.00000000e+00 
3.33333325e+00 6.66666651e+00 0.00000000e+00 
4.16666651e+00 6.66666651e+00 0.00000000e+00 
5.00000000e+00 6.66666651e+00 0.00000000e+00 
2.50000000e+00 7.00000000e+00 0.00000000e+00 
3.33333325e+00 7.00000000e+00 0.00000000e+00 
4.16666651e+00 7.00000000e+00 0.00000000e+00 
5.00000000e+00 7.00000000e+00 0.00000000e+00 

        </DataArray>
      </Points>
      <Cells>
        <DataArray type="Int32" Name="connectivity" format="ascii">
0 1 5 4
4 5 9 8
8 9 13 12
1 2 6 5
5 6 10 9
9 10 14 13
2 3 7 6
6 7 11 10
10 11 15 14

        </DataArray>
        <DataArray type="Int32" Name="offsets" format="ascii">
4 8 12 16 20 24 28 32 36 
        </DataArray>
        <DataArray type="UInt8" Name="types" format="ascii">
9 9 9 9 9 9 9 9 9 
        </DataArray>
      </Cells>
      <PointData>
        <DataArray type="Float64" Name="u">
          0.00000000e+00 4.01107908e+01 4.18095830e+01 5.42073066e+01 0.00000000e+00 9.55200581e+00 1.46827817e+01 2.48086131e+01 0.00000000e+00 -1.68425104e+00 5.28573016e-01 5.13663087e+00 0.00000000e+00 -5.49607614e+00 -6.53657372e+00 -7.71787558e+00 
        </DataArray>
        <DataArray type="Float64" Name="v">
          0.00000000e+00 -4.82694865e+00 -3.06795916e+00 -1.31948766e+00 0.00000000e+00 -1.38411607e+01 -7.95272064e+00 -1.87070729e+00 0.00000000e+00 -1.61633978e+01 -9.55398068e+00 -3.23873033e+00 0.00000000e+00 -1.42874723e+01 -1.05344259e+01 -5.06858161e+00 
        </DataArray>
        <DataArray type="Float64" Name="p">
          -5.65030254e+03 -5.19236217e+03 -4.73442179e+03 -4.27648141e+03 -5.36041419e+03 -5.04333878e+03 -4.72626337e+03 -4.40918796e+03 -5.07052585e+03 -4.89431540e+03 -4.71810495e+03 -4.54189450e+03 -4.78063750e+03 -4.74529202e+03 -4.70994653e+03 -4.67460105e+03 
        </DataArray>
      </PointData>
    </Piece>
    <Piece NumberOfPoints="16" NumberOfCells="9">
      <Points>
        <DataArray type="Float64" NumberOfComponents="3" format="ascii">
          2.50000000e+00 7.00000000e+00 0.00000000e+00 
3.33333325e+00 7.00000000e+00 0.00000000e+00 
4.16666651e+00 7.00000000e+00 0.00000000e+00 
5.00000000e+00 7.00000000e+00 0.00000000e+00 
2.50000000e+00 7.33333349e+00 0.00000000e+00 
3.33333325e+00 7.33333349e+00 0.00000000e+00 
4.16666651e+00 7.33333349e+00 0.00000000e+00 
5.00000000e+00 7.33333349e+00 0.00000000e+00 
2.50000000e+00 7.66666651e+00 0.00000000e+00 
3.33333325e+00 7.66666651e+00 0.00000000e+00 
4.16666651e+00 7.66666651e+00 0.00000000e+00 
5.00000000e+00 7.66666651e+00 0.00000000e+00 
2.50000000e+00 8.00000000e+00 0.00000000e+00 
3.33333325e+00 8.00000000e+00 0.00000000e+00 
4.16666651e+00 8.00000000e+00 0.00000000e+00 
5.00000000e+00 8.00000000e+00 0.00000000e+00 

        </DataArray>
      </Points>
      <Cells>
        <DataArray type="Int32" Name="connectivity" format="ascii">
0 1 5 4
4 5 9 8
8 9 13 12
1 2 6 5
5 6 10 9
9 10 14 13
2 3 7 6
6 7 11 10
10 11 15 14

        </DataArray>
        <DataArray type="Int32" Name="offsets" format="ascii">
4 8 12 16 20 24 28 32 36 
        </DataArray>
        <DataArray type="UInt8" Name="types" format="ascii">
9 9 9 9 9 9 9 9 9 
        </DataArray>
      </Cells>
      <PointData>
        <DataArray type="Float64" Name="u">
          0.00000000e+00 -5.49607614e+00 -6.53657372e+00 -7.71787558e+00 0.00000000e+00 -6.82078186e+00 -1.02549177e+01 -1.43817150e+01 0.00000000e+00 -6.79154476e+00 -1.13170206e+01 -1.70747604e+01 0.00000000e+00 -5.94865152e+00 -1.04269241e+01 -1.65376718e+01 
        </DataArray>
        <DataArray type="Float64" Name="v">
          0.00000000e+00 -1.42874723e+01 -1.05344259e+01 -5.06858161e+00 0.00000000e+00 -1.12160050e+01 -9.13103007e+00 -5.15544894e+00 0.00000000e+00 -8.46039028e+00 -7.22215205e+00 -4.40922588e+00 0.00000000e+00 -5.02550559e+00 -4.66041096e+00 -3.02653717e+00 
        </DataArray>
        <DataArray type="Float64" Name="p">
          -4.80939223e+03 -4.73588337e+03 -4.66237452e+03 -4.58886567e+03 -4.72988309e+03 -4.67172449e+03 -4.61356588e+03 -4.55540728e+03 -4.65037394e+03 -4.60756560e+03 -4.56475725e+03 -4.52194890e+03 -4.57086480e+03 -4.54340671e+03 -4.51594861e+03 -4.48849051e+03 
        </DataArray>
      </PointData>
    </Piece>
    <Piece NumberOfPoints="16" NumberOfCells="9">
      <Points>
        <DataArray type="Float64" NumberOfComponents="3" format="ascii">
          2.50000000e+00 8.00000000e+00 0.00000000e+00 
3.33333325e+00 8.00000000e+00 0.00000000e+00 
4.16666651e+00 8.00000000e+00 0.00000000e+00 
5.00000000e+00 8.00000000e+00 0.00000000e+00 
2.50000000e+00 8.33333302e+00 0.00000000e+00 
3.33333325e+00 8.33333302e+00 0.00000000e+00 
4.16666651e+00 8.33333302e+00 0.00000000e+00 
5.00000000e+00 8.33333302e+00 0.00000000e+00 
2.50000000e+00 8.66666698e+00 0.00000000e+00 
3.33333325e+00 8.66666698e+00 0.00000000e+00 
4.16666651e+00 8.66666698e+00 0.00000000e+00 
5.00000000e+00 8.66666698e+00 0.00000000e+00 
2.50000000e+00 9.00000000e+00 0.00000000e+00 
3.33333325e+00 9.00000000e+00 0.00000000e+00 
4.16666651e+00 9.00000000e+00 0.00000000e+00 
5.00000000e+00 9.00000000e+00 0.00000000e+00 

        </DataArray>
      </Points>
      <Cells>
        <DataArray type="Int32" Name="connectivity" format="ascii">
0 1 5 4
4 5 9 8
8 9 13 12
1 2 6 5
5 6 10 9
9 10 14 13
2 3 7 6
6 7 11 10
10 11 15 14

        </DataArray>
        <DataArray type="Int32" Name="offsets" format="ascii">
4 8 12 16 20 24 28 32 36 
        </DataArray>
        <DataArray type="UInt8" Name="types" format="ascii">
9 9 9 9 9 9 9 9 9 
        </DataArray>
      </Cells>
      <PointData>
        <DataArray type="Float64" Name="u">
          0.00000000e+00 -5.94865152e+00 -1.04269241e+01 -1.65376718e+01 0.00000000e+00 -4.53570616e+00 -8.02820271e+00 -1.33913090e+01 0.00000000e+00 -2.56031855e+00 -4.41827499e+00 -7.83303943e+00 0.00000000e+00 0.00000000e+00 0.00000000e+00 0.00000000e+00 
        </DataArray>
        <DataArray type="Float64" Name="v">
          0.00000000e+00 -5.02550559e+00 -4.66041096e+00 -3.02653717e+00 0.00000000e+00 -2.27404733e+00 -2.26442791e+00 -1.45805304e+00 0.00000000e+00 -7.52978749e-01 -8.10288727e-01 -5.16999672e-01 0.00000000e+00 0.00000000e+00 0.00000000e+00 0.00000000e+00 
        </DataArray>
        <DataArray type="Float64" Name="p">
          -4.58574068e+03 -4.55073303e+03 -4.51572539e+03 -4.48071775e+03 -4.59762066e+03 -4.56256163e+03 -4.52750261e+03 -4.49244359e+03 -4.60950063e+03 -4.57439023e+03 -4.53927983e+03 -4.50416944e+03 -4.62138061e+03 -4.58621883e+03 -4.55105706e+03 -4.51589528e+03 
        </DataArray>
      </PointData>
    </Piece>
    <Piece NumberOfPoints="16" NumberOfCells="9">
      <Points>
        <DataArray type="Float64" NumberOfComponents="3" format="ascii">
          5.00000000e+00 0.00000000e+00 0.00000000e+00 
5.83333349e+00 0.00000000e+00 0.00000000e+00 
6.66666651e+00 0.00000000e+00 0.00000000e+00 
7.50000000e+00 0.00000000e+00 0.00000000e+00 
5.00000000e+00 3.33333343e-01 0.00000000e+00 
5.83333349e+00 3.33333343e-01 0.00000000e+00 
6.66666651e+00 3.33333343e-01 0.00000000e+00 
7.50000000e+00 3.33333343e-01 0.00000000e+00 
5.00000000e+00 6.66666687e-01 0.00000000e+00 
5.83333349e+00 6.66666687e-01 0.00000000e+00 
6.66666651e+00 6.66666687e-01 0.00000000e+00 
7.50000000e+00 6.66666687e-01 0.00000000e+00 
5.00000000e+00 1.00000000e+00 0.00000000e+00 
5.83333349e+00 1.00000000e+00 0.00000000e+00 
6.66666651e+00 1.00000000e+00 0.00000000e+00 
7.50000000e+00 1.00000000e+00 0.00000000e+00 

        </DataArray>
      </Points>
      <Cells>
        <DataArray type="Int32" Name="connectivity" format="ascii">
0 1 5 4
4 5 9 8
8 9 13 12
1 2 6 5
5 6 10 9
9 10 14 13
2 3 7 6
6 7 11 10
10 11 15 14

        </DataArray>
        <DataArray type="Int32" Name="offsets" format="ascii">
4 8 12 16 20 24 28 32 36 
        </DataArray>
        <DataArray type="UInt8" Name="types" format="ascii">
9 9 9 9 9 9 9 9 9 
        </DataArray>
      </Cells>
      <PointData>
        <DataArray type="Float64" Name="u">