<?xml version="1.0"?>
<VTKFile type="UnstructuredGrid" version="0.1" byte_order="LittleEndian">
  <UnstructuredGrid>
    <Piece NumberOfPoints="16" NumberOfCells="9">
      <Points>
        <DataArray type="Float64" NumberOfComponents="3" format="ascii">
          0.00000000e+00 3.00000000e+00 0.00000000e+00 
8.33333313e-01 3.00000000e+00 0.00000000e+00 
1.66666663e+00 3.00000000e+00 0.00000000e+00 
2.50000000e+00 3.00000000e+00 0.00000000e+00 
0.00000000e+00 3.33333325e+00 0.00000000e+00 
8.33333313e-01 3.33333325e+00 0.00000000e+00 
1.66666663e+00 3.33333325e+00 0.00000000e+00 
2.50000000e+00 3.33333325e+00 0.00000000e+00 
0.00000000e+00 3.66666675e+00 0.00000000e+00 
8.33333313e-01 3.66666675e+00 0.00000000e+00 
1.66666663e+00 3.66666675e+00 0.00000000e+00 
2.50000000e+00 3.66666675e+00 0.00000000e+00 
0.00000000e+00 4.00000000e+00 0.00000000e+00 
8.33333313e-01 4.00000000e+00 0.00000000e+00 
1.66666663e+00 4.00000000e+00 0.00000000e+00 
2.50000000e+00 4.00000000e+00 0.00000000e+00 

        </DataArray>
      </Points>
      <Cells>
        <DataArray type="Int32" Name="connectivity" format="ascii">
0 1 5 4
4 5 9 8
8 9 13 12
1 2 6 5
5 6 10 9
9 10 14 13
2 3 7 6
6 7 11 10
10 11 15 14

        </DataArray>
        <DataArray type="Int32" Name="offsets" format="ascii">
4 8 12 16 20 24 28 32 36 
        </DataArray>
        <DataArray type="UInt8" Name="types" format="ascii">
9 9 9 9 9 9 9 9 9 
        </DataArray>
      </Cells>
      <PointData>
        <DataArray type="Float64" Name="u">
          0.00000000e+00 0.00000000e+00 0.00000000e+00 0.00000000e+00 8.88888889e+01 8.77149913e+01 8.80397460e+01 8.45950802e+01 1.55555556e+02 1.53643612e+02 1.54576052e+02 1.50236737e+02 2.00000000e+02 1.97857913e+02 1.99049436e+02 1.95056433e+02 
        </DataArray>
        <DataArray type="Float64" Name="v">
          0.00000000e+00 0.00000000e+00 0.00000000e+00 0.00000000e+00 0.00000000e+00 3.31553184e-01 1.02054793e+00 2.80792220e-01 0.00000000e+00 3.61191874e-01 1.15654864e+00 1.70476890e+00 0.00000000e+00 1.04446682e+00 2.36939213e+00 3.27100209e+00 
        </DataArray>
        <DataArray type="Float64" Name="p">
          -1.36674506e+03 -2.65941189e+03 -3.95207871e+03 -5.24474554e+03 -1.39455549e+03 -2.68638629e+03 -3.97821710e+03 -5.27004791e+03 -1.42236592e+03 -2.71336070e+03 -4.00435549e+03 -5.29535028e+03 -1.45017634e+03 -2.74033511e+03 -4.03049388e+03 -5.32065265e+03 
        </DataArray>
      </PointData>
    </Piece>
    <Piece NumberOfPoints="16" NumberOfCells="9">
      <Points>
        <DataArray type="Float64" NumberOfComponents="3" format="ascii">
          0.00000000e+00 4.00000000e+00 0.00000000e+00 
8.33333313e-01 4.00000000e+00 0.00000000e+00 
1.66666663e+00 4.00000000e+00 0.00000000e+00 
2.50000000e+00 4.00000000e+00 0.00000000e+00 
0.00000000e+00 4.33333349e+00 0.00000000e+00 
8.33333313e-01 4.33333349e+00 0.00000000e+00 
1.66666663e+00 4.33333349e+00 0.00000000e+00 
2.50000000e+00 4.33333349e+00 0.00000000e+00 
0.00000000e+00 4.66666651e+00 0.00000000e+00 
8.33333313e-01 4.66666651e+00 0.00000000e+00 
1.66666663e+00 4.66666651e+00 0.00000000e+00 
2.50000000e+00 4.66666651e+00 0.00000000e+00 
0.00000000e+00 5.00000000e+00 0.00000000e+00 
8.33333313e-01 5.00000000e+00 0.00000000e+00 
1.66666663e+00 5.00000000e+00 0.00000000e+00 
2.50000000e+00 5.00000000e+00 0.00000000e+00 

        </DataArray>
      </Points>
      <Cells>
        <DataArray type="Int32" Name="connectivity" format="ascii">
0 1 5 4
4 5 9 8
8 9 13 12
1 2 6 5
5 6 10 9
9 10 14 13
2 3 7 6
6 7 11 10
10 11 15 14

        </DataArray>
        <DataArray type="Int32" Name="offsets" format="ascii">
4 8 12 16 20 24 28 32 36 
        </DataArray>
        <DataArray type="UInt8" Name="types" format="ascii">
9 9 9 9 9 9 9 9 9 
        </DataArray>
      </Cells>
      <PointData>
        <DataArray type="Float64" Name="u">
          2.00000000e+02 1.97857913e+02 1.99049436e+02 1.95056433e+02 2.22222222e+02 2.20600668e+02 2.21687545e+02 2.19294279e+02 2.22222222e+02 2.21439637e+02 2.22634061e+02 2.21907025e+02 2.00000000e+02 2.00195654e+02 2.01576697e+02 2.02514695e+02 
        </DataArray>
        <DataArray type="Float64" Name="v">
          0.00000000e+00 1.04446682e+00 2.36939213e+00 3.27100209e+00 0.00000000e+00 1.61659743e+00 2.97415988e+00 4.58608325e+00 0.00000000e+00 1.63375544e+00 3.17921061e+00 4.51646647e+00 0.00000000e+00 1.64457418e+00 2.84160687e+00 4.91735262e+00 
        </DataArray>
        <DataArray type="Float64" Name="p">
          -1.44272753e+03 -2.74973352e+03 -4.05673950e+03 -5.36374549e+03 -1.58283086e+03 -2.88840289e+03 -4.19397493e+03 -5.49954696e+03 -1.72293419e+03 -3.02707227e+03 -4.33121035e+03 -5.63534843e+03 -1.86303752e+03 -3.16574165e+03 -4.46844577e+03 -5.77114990e+03 
        </DataArray>
      </PointData>
    </Piece>
    <Piece NumberOfPoints="16" NumberOfCells="9">
      <Points>
        <DataArray type="Float64" NumberOfComponents="3" format="ascii">
          0.00000000e+00 5.00000000e+00 0.00000000e+00 
8.33333313e-01 5.00000000e+00 0.00000000e+00 
1.66666663e+00 5.00000000e+00 0.00000000e+00 
2.50000000e+00 5.00000000e+00 0.00000000e+00 
0.00000000e+00 5.33333349e+00 0.00000000e+00 
8.33333313e-01 5.33333349e+00 0.00000000e+00 
1.66666663e+00 5.33333349e+00 0.00000000e+00 
2.50000000e+00 5.33333349e+00 0.00000000e+00 
0.00000000e+00 5.66666651e+00 0.00000000e+00 
8.33333313e-01 5.66666651e+00 0.00000000e+00 
1.66666663e+00 5.66666651e+00 0.00000000e+00 
2.50000000e+00 5.66666651e+00 0.00000000e+00 
0.00000000e+00 6.00000000e+00 0.00000000e+00 
8.33333313e-01 6.00000000e+00 0.00000000e+00 
1.66666663e+00 6.00000000e+00 0.00000000e+00 
2.50000000e+00 6.00000000e+00 0.00000000e+00 

        </DataArray>
      </Points>
      <Cells>
        <DataArray type="Int32" Name="connectivity" format="ascii">
0 1 5 4
4 5 9 8
8 9 13 12
1 2 6 5
5 6 10 9
9 10 14 13
2 3 7 6
6 7 11 10
10 11 15 14

        </DataArray>
        <DataArray type="Int32" Name="offsets" format="ascii">
4 8 12 16 20 24 28 32 36 
        </DataArray>
        <DataArray type="UInt8" Name="types" format="ascii">
9 9 9 9 9 9 9 9 9 
        </DataArray>
      </Cells>
      <PointData>
        <DataArray type="Float64" Name="u">
          2.00000000e+02 2.00195654e+02 2.01576697e+02 2.02514695e+02 1.55555556e+02 1.57154050e+02 1.57865355e+02 1.61348217e+02 8.88888889e+01 9.12915573e+01 9.08995920e+01 9.75712420e+01 0.00000000e+00 0.00000000e+00 0.00000000e+00 0.00000000e+00 
        </DataArray>
        <DataArray type="Float64" Name="v">
          0.00000000e+00 1.64457418e+00 2.84160687e+00 4.91735262e+00 0.00000000e+00 7.74074010e-01 1.66762023e+00 3.37238290e+00 0.00000000e+00 8.29056887e-01 1.12322705e+00 3.61215702e+00 0.00000000e+00 0.00000000e+00 0.00000000e+00 0.00000000e+00 
        </DataArray>
        <DataArray type="Float64" Name="p">
          -1.89870088e+03 -3.20162757e+03 -4.50455427e+03 -5.80748096e+03 -1.90887013e+03 -3.23519839e+03 -4.56152665e+03 -5.88785491e+03 -1.91903939e+03 -3.26876921e+03 -4.61849903e+03 -5.96822885e+03 -1.92920864e+03 -3.30234003e+03 -4.67547141e+03 -6.04860280e+03 
        </DataArray>
      </PointData>
    </Piece>
    <Piece NumberOfPoints="16" NumberOfCells="9">
      <Points>
        <DataArray type="Float64" NumberOfComponents="3" format="ascii">
          2.50000000e+00 0.00000000e+00 0.00000000e+00 
3.33333325e+00 0.00000000e+00 0.00000000e+00 
4.16666651e+00 0.00000000e+00 0.00000000e+00 
5.00000000e+00 0.00000000e+00 0.00000000e+00 
2.50000000e+00 3.33333343e-01 0.00000000e+00 
3.33333325e+00 3.33333343e-01 0.00000000e+00 
4.16666651e+00 3.33333343e-01 0.00000000e+00 
5.00000000e+00 3.33333343e-01 0.00000000e+00 
2.50000000e+00 6.66666687e-01 0.00000000e+00 
3.33333325e+00 6.66666687e-01 0.00000000e+00 
4.16666651e+00 6.66666687e-01 0.00000000e+00 
5.00000000e+00 6.66666687e-01 0.00000000e+00 
2.50000000e+00 1.00000000e+00 0.00000000e+00 
3.33333325e+00 1.00000000e+00 0.00000000e+00 
4.16666651e+00 1.00000000e+00 0.00000000e+00 
5.00000000e+00 1.00000000e+00 0.00000000e+00 

        </DataArray>
      </Points>
      <Cells>
        <DataArray type="Int32" Name="connectivity" format="ascii">
0 1 5 4
4 5 9 8
8 9 13 12
1 2 6 5
5 6 10 9
9 10 14 13
2 3 7 6
6 7 11 10
10 11 15 14

        </DataArray>
        <DataArray type="Int32" Name="offsets" format="ascii">
4 8 12 16 20 24 28 32 36 
        </DataArray>
        <DataArray type="UInt8" Name="types" format="ascii">
9 9 9 9 9 9 9 9 9 
        </DataArray>
      </Cells>
      <PointData>
        <DataArray type="Float64" Name="u">
          0.00000000e+00 0.00000000e+00 0.00000000e+00 0.00000000e+00 0.00000000e+00 -2.57890145e+00 -4.44334085e+00 -7.87995582e+00 0.00000000e+00 -4.56463557e+00 -8.06769372e+00 -1.34605919e+01 0.00000000e+00 -5.98105405e+00 -1.04678908e+01 -1.66049381e+01 
        </DataArray>
        <DataArray type="Float64" Name="v">
          0.00000000e+00 0.00000000e+00 0.00000000e+00 0.00000000e+00 0.00000000e+00 7.58075576e-01 8.15402912e-01 5.19932236e-01 0.00000000e+00 2.28755819e+00 2.27708608e+00 1.46454555e+00 0.00000000e+00 5.05312355e+00 4.68448284e+00 3.03781330e+00 
        </DataArray>
        <DataArray type="Float64" Name="p">
          -4.62270790e+03 -4.58677796e+03 -4.55084803e+03 -4.51491810e+03 -4.61070143e+03 -4.57482837e+03 -4.53895530e+03 -4.50308224e+03 -4.59869497e+03 -4.56287877e+03 -4.52706257e+03 -4.49124638e+03 -4.58668850e+03 -4.55092917e+03 -4.51516984e+03 -4.47941052e+03 
        </DataArray>
      </PointData>
    </Piece>
    <Piece NumberOfPoints="16" NumberOfCells="9">
      <Points>
        <DataArray type="Float64" NumberOfComponents="3" format="ascii">
          2.50000000e+00 1.00000000e+00 0.00000000e+00 
3.33333325e+00 1.00000000e+00 0.00000000e+00 
4.16666651e+00 1.00000000e+00 0.00000000e+00 
5.00000000e+00 1.00000000e+00 0.00000000e+00 
2.50000000e+00 1.33333337e+00 0.00000000e+00 
3.33333325e+00 1.33333337e+00 0.00000000e+00 
4.16666651e+00 1.33333337e+00 0.00000000e+00 
5.00000000e+00 1.33333337e+00 0.00000000e+00 
2.50000000e+00 1.66666663e+00 0.00000000e+00 
3.33333325e+00 1.66666663e+00 0.00000000e+00 
4.16666651e+00 1.66666663e+00 0.00000000e+00 
5.00000000e+00 1.66666663e+00 0.00000000e+00 
2.50000000e+00 2.00000000e+00 0.00000000e+00 
3.33333325e+00 2.00000000e+00 0.00000000e+00 
4.16666651e+00 2.00000000e+00 0.00000000e+00 
5.00000000e+00 2.00000000e+00 0.00000000e+00 

        </DataArray>
      </Points>
      <Cells>
        <DataArray type="Int32" Name="connectivity" format="ascii">
0 1 5 4
4 5 9 8
8 9 13 12
1 2 6 5
5 6 10 9
9 10 14 13
2 3 7 6
6 7 11 10
10 11 15 14

        </DataArray>
        <DataArray type="Int32" Name="offsets" format="ascii">
4 8 12 16 20 24 28 32 36 
        </DataArray>
        <DataArray type="UInt8" Name="types" format="ascii">
9 9 9 9 9 9 9 9 9 
        </DataArray>
      </Cells>
      <PointData>
        <DataArray type="Float64" Name="u">
          0.00000000e+00 -5.98105405e+00 -1.04678908e+01 -1.66049381e+01 0.00000000e+00 -6.82130919e+00 -1.13458634e+01 -1.71161799e+01 0.00000000e+00 -6.84091157e+00 -1.02575026e+01 -1.43734069e+01 0.00000000e+00 -5.49693055e+00 -6.49784127e+00 -7.63658993e+00 
        </DataArray>
        <DataArray type="Float64" Name="v">
          0.00000000e+00 5.05312355e+00 4.68448284e+00 3.03781330e+00 0.00000000e+00 8.50118363e+00 7.25384441e+00 4.41924743e+00 0.00000000e+00 1.12637660e+01 9.16424619e+00 5.15769502e+00 0.00000000e+00 1.43359130e+01 1.05584415e+01 5.05168431e+00 
        </DataArray>
        <DataArray type="Float64" Name="p">
          -4.57169802e+03 -4.54358729e+03 -4.51547657e+03 -4.48736584e+03 -4.65214449e+03 -4.60848749e+03 -4.56483048e+03 -4.52117348e+03 -4.73259097e+03 -4.67338769e+03 -4.61418440e+03 -4.55498112e+03 -4.81303745e+03 -4.73828788e+03 -4.66353832e+03 -4.58878875e+03 
        </DataArray>
      </PointData>
    </Piece>
    <Piece NumberOfPoints="16" NumberOfCells="9">
      <Points>
        <DataArray type="Float64" NumberOfComponents="3" format="ascii">
          2.50000000e+00 2.00000000e+00 0.00000000e+00 
3.33333325e+00 2.00000000e+00 0.00000000e+00 
4.16666651e+00 2.00000000e+00 0.00000000e+00 
5.00000000e+00 2.00000000e+00 0.00000000e+00 
2.50000000e+00 2.33333325e+00 0.00000000e+00 
3.33333325e+00 2.33333325e+00 0.00000000e+00 
4.16666651e+00 2.33333325e+00 0.00000000e+00 
5.00000000e+00 2.33333325e+00 0.00000000e+00 
2.50000000e+00 2.66666675e+00 0.00000000e+00 
3.33333325e+00 2.66666675e+00 0.00000000e+00 
4.16666651e+00 2.66666675e+00 0.00000000e+00 
5.00000000e+00 2.66666675e+00 0.00000000e+00 
2.50000000e+00 3.00000000e+00 0.00000000e+00 
3.33333325e+00 3.00000000e+00 0.00000000e+00 
4.16666651e+00 3.00000000e+00 0.00000000e+00 
5.00000000e+00 3.00000000e+00 0.00000000e+00 

        </DataArray>
      </Points>
      <Cells>
        <DataArray type="Int32" Name="connectivity" format="ascii">
0 1 5 4
4 5 9 8
8 9 13 12
1 2 6 5
5 6 10 9
9 10 14 13
2 3 7 6
6 7 11 10
10 11 15 14

        </DataArray>
        <DataArray type="Int32" Name="offsets" format="ascii">
4 8 12 16 20 24 28 32 36 
        </DataArray>
        <DataArray type="UInt8" Name="types" format="ascii">
9 9 9 9 9 9 9 9 9 
        </DataArray>
      </Cells>
      <PointData>
        <DataArray type="Float64" Name="u">
          0.00000000e+00 -5.49693055e+00 -6.49784127e+00 -7.63658993e+00 0.00000000e+00 -1.65074366e+00 6.24771146e-01 5.31508437e+00 0.00000000e+00 9.65263352e+00 1.48636328e+01 2.50942238e+01 0.00000000e+00 4.03077540e+01 4.20873248e+01 5.45936959e+01 
        </DataArray>
        <DataArray type="Float64" Name="v">
          0.00000000e+00 1.43359130e+01 1.05584415e+01 5.05168431e+00 0.00000000e+00 1.62001194e+01 9.55361440e+00 3.19221226e+00 0.00000000e+00 1.38404143e+01 7.91584861e+00 1.80021115e+00 0.00000000e+00 4.75813094e+00 2.98595472e+00 1.22847865e+00 
        </DataArray>
        <DataArray type="Float64" Name="p">
          -4.78394536e+03 -4.74774577e+03 -4.71154618e+03 -4.67534659e+03 -5.07681172e+03 -4.89817761e+03 -4.71954351e+03 -4.54090940e+03 -5.36967808e+03 -5.04860946e+03 -4.72754083e+03 -4.40647221e+03 -5.66254444e+03 -5.19904130e+03 -4.73553816e+03 -4.27203502e+03 
        </DataArray>
      </PointData>
    </Piece>
    <Piece NumberOfPoints="16" NumberOfCells="9">
      <Points>
        <DataArray type="Float64" NumberOfComponents="3" format="ascii">
          2.50000000e+00 3.00000000e+00 0.00000000e+00 
3.33333325e+00 3.00000000e+00 0.00000000e+00 
4.16666651e+00 3.00000000e+00 0.00000000e+00 
5.00000000e+00 3.00000000e+00 0.00000000e+00 
2.50000000e+00 3.33333325e+00 0.00000000e+00 
3.33333325e+00 3.33333325e+00 0.00000000e+00 
4.16666651e+00 3.33333325e+00 0.00000000e+00 
5.00000000e+00 3.33333325e+00 0.00000000e+00 
2.50000000e+00 3.66666675e+00 0.00000000e+00 
3.33333325e+00 3.66666675e+00 0.00000000e+00 
4.16666651e+00 3.66666675e+00 0.00000000e+00 
5.00000000e+00 3.66666675e+00 0.00000000e+00 
2.50000000e+00 4.00000000e+00 0.00000000e+00 
3.33333325e+00 4.00000000e+00 0.00000000e+00 
4.16666651e+00 4.00000000e+00 0.00000000e+00 
5.00000000e+00 4.00000000e+00 0.00000000e+00 

        </DataArray>
      </Points>
      <Cells>
        <DataArray type="Int32" Name="connectivity" format="ascii">
0 1 5 4
4 5 9 8
8 9 13 12
1 2 6 5
5 6 10 9
9 10 14 13
2 3 7 6
6 7 11 10
10 11 15 14

        </DataArray>
        <DataArray type="Int32" Name="offsets" format="ascii">
4 8 12 16 20 24 28 32 36 
        </DataArray>
        <DataArray type="UInt8" Name="types" format="ascii">
9 9 9 9 9 9 9 9 9 
        </DataArray>
      </Cells>
      <PointData>
        <DataArray type="Float64" Name="u">
          0.00000000e+00 4.03077540e+01 4.20873248e+01 5.45936959e+01 8.45950802e+01 8.73913868e+01 8.74647458e+01 8.88205080e+01 1.50236737e+02 1.43249262e+02 1.38915173e+02 1.31920485e+02 1.95056433e+02 1.86452118e+02 1.81813942e+02 1.70892598e+02 
        </DataArray>
        <DataArray type="Float64" Name="v">
          0.00000000e+00 4.75813094e+00 2.98595472e+00 1.22847865e+00 2.80792220e-01 -2.08094759e+00 9.40028525e-01 4.25383245e+00 1.70476890e+00 -2.07083622e+00 -1.43680205e-01 5.04247084e+00 3.27100209e+00 1.72242179e+00 4.18769067e+00 8.19644162e+00 
        </DataArray>
        <DataArray type="Float64" Name="p">
          -5.69823994e+03 -5.14355814e+03 -4.58887635e+03 -4.03419455e+03 -5.35599235e+03 -5.01194647e+03 -4.66790060e+03 -4.32385472e+03 -5.01374476e+03 -4.88033480e+03 -4.74692485e+03 -4.61351490e+03 -4.67149717e+03 -4.74872313e+03 -4.82594910e+03 -4.90317507e+03 
        </DataArray>
      </PointData>
    </Piece>
    <Piece NumberOfPoints="16" NumberOfCells="9">
      <Points>
        <DataArray type="Float64" NumberOfComponents="3" format="ascii">
          2.50000000e+00 4.00000000e+00 0.00000000e+00 
3.33333325e+00 4.00000000e+00 0.00000000e+00 
4.16666651e+00 4.00000000e+00 0.00000000e+00 
5.00000000e+00 4.00000000e+00 0.00000000e+00 
2.50000000e+00 4.33333349e+00 0.00000000e+00 
3.33333325e+00 4.33333349e+00 0.00000000e+00 
4.16666651e+00 4.33333349e+00 0.00000000e+00 
5.00000000e+00 4.33333349e+00 0.00000000e+00 
2.50000000e+00 4.66666651e+00 0.00000000e+00 
3.33333325e+00 4.66666651e+00 0.00000000e+00 
4.16666651e+00 4.66666651e+00 0.00000000e+00 
5.00000000e+00 4.66666651e+00 0.00000000e+00 
2.50000000e+00 5.00000000e+00 0.00000000e+00 
3.33333325e+00 5.00000000e+00 0.00000000e+00 
4.16666651e+00 5.00000000e+00 0.00000000e+00 
5.00000000e+00 5.00000000e+00 0.00000000e+00 

        </DataArray>
      </Points>
      <Cells>
        <DataArray type="Int32" Name="connectivity" format="ascii">
0 1 5 4
4 5 9 8
8 9 13 12
1 2 6 5
5 6 10 9
9 10 14 13
2 3 7 6
6 7 11 10
10 11 15 14

        </DataArray>
        <DataArray type="Int32" Name="offsets" format="ascii">
4 8 12 16 20 24 28 32 36 
        </DataArray>
        <DataArray type="UInt8" Name="types" format="ascii">
9 9 9 9 9 9 9 9 9 
        </DataArray>
      </Cells>
      <PointData>
        <DataArray type="Float64" Name="u">
          1.95056433e+02 1.86452118e+02 1.81813942e+02 1.70892598e+02 2.19294279e+02 2.10628187e+02 2.06907607e+02 1.96487222e+02 2.21907025e+02 2.14333267e+02 2.12702038e+02 2.04321100e+02 2.02514695e+02 1.96696780e+02 1.98402154e+02 1.92633090e+02 
        </DataArray>
        <DataArray type="Float64" Name="v">
          3.27100209e+00 1.72242179e+00 4.18769067e+00 8.19644162e+00 4.58608325e+00 6.33574300e+00 8.15515330e+00 1.09547696e+01 4.51646647e+00 7.36151421e+00 1.06644925e+01 1.34755140e+01 4.91735262e+00 1.08560485e+01 1.31815742e+01 1.42573151e+01 
        </DataArray>
        <DataArray type="Float64" Name="p">
          -4.53992729e+03 -4.71123803e+03 -4.88254876e+03 -5.05385950e+03 -4.74058236e+03 -4.94190286e+03 -5.14322337e+03 -5.34454387e+03 -4.94123743e+03 -5.17256770e+03 -5.40389797e+03 -5.63522825e+03 -5.14189249e+03 -5.40323254e+03 -5.66457258e+03 -5.92591262e+03 
        </DataArray>
      </PointData>
    </Piece>
    <Piece NumberOfPoints="16" NumberOfCells="9">
      <Points>
        <DataArray type="Float64" NumberOfComponents="3" format="ascii">
          2.50000000e+00 5.00000000e+00 0.00000000e+00 
3.33333325e+00 5.00000000e+00 0.00000000e+00 
4.16666651e+00 5.00000000e+00 0.00000000e+00 
5.00000000e+00 5.00000000e+00 0.00000000e+00 
2.50000000e+00 5.33333349e+00 0.00000000e+00 
3.33333325e+00 5.33333349e+00 0.00000000e+00 
4.16666651e+00 5.33333349e+00 0.00000000e+00 
5.00000000e+00 5.33333349e+00 0.00000000e+00 
2.50000000e+00 5.66666651e+00 0.00000000e+00 
3.33333325e+00 5.66666651e+00 0.00000000e+00 
4.16666651e+00 5.66666651e+00 0.00000000e+00 
5.00000000e+00 5.66666651e+00 0.00000000e+00 
2.50000000e+00 6.00000000e+00 0.00000000e+00 
3.33333325e+00 6.00000000e+00 0.00000000e+00 
4.16666651e+00 6.00000000e+00 0.00000000e+00 
5.00000000e+00 6.00000000e+00 0.00000000e+00 

        </DataArray>
      </Points>
      <Cells>
        <DataArray type="Int32" Name="connectivity" format="ascii">
0 1 5 4
4 5 9 8
8 9 13 12
1 2 6 5
5 6 10 9
9 10 14 13
2 3 7 6
6 7 11 10
10 11 15 14

        </DataArray>
        <DataArray type="Int32" Name="offsets" format="ascii">
4 8 12 16 20 24 28 32 36 
        </DataArray>
        <DataArray type="UInt8" Name="types" format="ascii">
9 9 9 9 9 9 9 9 9 
        </DataArray>
      </Cells>
      <PointData>
        <DataArray type="Float64" Name="u">
          2.02514695e+02 1.96696780e+02 1.98402154e+02 1.92633090e+02 1.61348217e+02 1.59241460e+02 1.63275990e+02 1.64190994e+02 9.75712420e+01 1.04558358e+02 1.13907225e+02 1.23794933e+02 0.00000000e+00 5.22808491e+01 6.22178057e+01 8.43026919e+01 
        </DataArray>
        <DataArray type="Float64" Name="v">
          4.91735262e+00 1.08560485e+01 1.31815742e+01 1.42573151e+01 3.37238290e+00 1.17642133e+01 1.38704080e+01 1.25126996e+01 3.61215702e+00 1.13716942e+01 1.19801825e+01 1.07523449e+01 0.00000000e+00 6.88195710e-01 5.08366203e+00 9.32376691e+00 
        </DataArray>
        <DataArray type="Float64" Name="p">
          -5.33311879e+03 -5.52694350e+03 -5.72076822e+03 -5.91459294e+03 -5.97316246e+03 -5.88385753e+03 -5.79455260e+03 -5.70524767e+03 -6.61320614e+03 -6.24077156e+03 -5.86833698e+03 -5.49590241e+03 -7.25324982e+03 -6.59768559e+03 -5.94212137e+03 -5.28655714e+03 
        </DataArray>
      </PointData>
    </Piece>
    <Piece NumberOfPoints="16" NumberOfCells="9">
      <Points>
        <DataArray type="Float64" NumberOfComponents="3" format="ascii">
          2.50000000e+00 6.00000000e+00 0.00000000e+00 
3.33333325e+00 6.00000000e+00 0.00000000e+00 
4.16666651e+00 6.00000000e+00 0.00000000e+00 
5.00000000e+00 6.00000000e+00 0.00000000e+00 
2.50000000e+00 6.33333349e+00 0.00000000e+00 
3.33333325e+00 6.33333349e+00 0.00000000e+00 
4.16666651e+00 6.33333349e+00 0.00000000e+00 
5.00000000e+00 6.33333349e+00 0.00000000e+00 
2.50000000e+00 6.66666651e+00 0.00000000e+00 
3.33333325e+00 6.66666651e+00 0.00000000e+00 
4.16666651e+00 6.66666651e+00 0.00000000e+00 
5.00000000e+00 6.66666651e+00 0.00000000e+00 
2.50000000e+00 7.00000000e+00 0.00000000e+00 
3.33333325e+00 7.00000000e+00 0.00000000e+00 
4.16666651e+00 7.00000000e+00 0.00000000e+00 
5.00000000e+00 7.00000000e+00 0.00000000e+00 

        </DataArray>
      </Points>
      <Cells>
        <DataArray type="Int32" Name="connectivity" format="ascii">
0 1 5 4
4 5 9 8
8 9 13 12
1 2 6 5
5 6 10 9
9 10 14 13
2 3 7 6
6 7 11 10
10 11 15 14

        </DataArray>
        <DataArray type="Int32" Name="offsets" format="ascii">
4 8 12 16 20 24 28 32 36 
        </DataArray>
        <DataArray type="UInt8" Name="types" format="ascii">
9 9 9 9 9 9 9 9 9 
        </DataArray>
      </Cells>
      <PointData>
        <DataArray type="Float64" Name="u">
          0.00000000e+00 5.22808491e+01 6.22178057e+01 8.43026919e+01 0.00000000e+00 1.47264835e+01 2.64827519e+01 4.66314092e+01 0.00000000e+00 2.43036208e-01 6.94380663e+00 1.92726797e+01 0.00000000e+00 -5.00794553e+00 -3.39003532e+00 -4.00527803e-01 
        </DataArray>
        <DataArray type="Float64" Name="v">
          0.00000000e+00 6.88195710e-01 5.08366203e+00 9.32376691e+00 0.00000000e+00 -1.25642036e+01 -3.99292255e+00 5.65921137e+00 0.00000000e+00 -1.70726480e+01 -8.37023913e+00 1.58098561e+00 0.00000000e+00 -1.60276916e+01 -1.15305721e+01 -3.33164107e+00 
        </DataArray>
        <DataArray type="Float64" Name="p">
          -7.13902427e+03 -6.57573902e+03 -6.01245378e+03 -5.44916853e+03 -6.79591041e+03 -6.41456886e+03 -6.03322731e+03 -5.65188577e+03 -6.45279655e+03 -6.25339870e+03 -6.05400085e+03 -5.85460300e+03 -6.10968269e+03 -6.09222854e+03 -6.07477438e+03 -6.05732023e+03 
        </DataArray>
      </PointData>
    </Piece>
    <Piece NumberOfPoints="16" NumberOfCells="9">
      <Points>
        <DataArray type="Float64" NumberOfComponents="3" format="ascii">
          2.50000000e+00 7.00000000e+00 0.00000000e+00 
3.33333325e+00 7.00000000e+00 0.00000000e+00 
4.16666651e+00 7.00000000e+00 0.00000000e+00 
5.00000000e+00 7.00000000e+00 0.00000000e+00 
2.50000000e+00 7.33333349e+00 0.00000000e+00 
3.33333325e+00 7.33333349e+00 0.00000000e+00 
4.16666651e+00 7.33333349e+00 0.00000000e+00 
5.00000000e+00 7.33333349e+00 0.00000000e+00 
2.50000000e+00 7.66666651e+00 0.00000000e+00 
3.33333325e+00 7.66666651e+00 0.00000000e+00 
4.16666651e+00 7.66666651e+00 0.00000000e+00 
5.00000000e+00 7.66666651e+00 0.00000000e+00 
2.50000000e+00 8.00000000e+00 0.00000000e+00 
3.33333325e+00 8.00000000e+00 0.00000000e+00 
4.16666651e+00 8.00000000e+00 0.00000000e+00 
5.00000000e+00 8.00000000e+00 0.00000000e+00 

        </DataArray>
      </Points>
      <Cells>
        <DataArray type="Int32" Name="connectivity" format="ascii">
0 1 5 4
4 5 9 8
8 9 13 12
1 2 6 5
5 6 10 9
9 10 14 13
2 3 7 6
6 7 11 10
10 11 15 14

        </DataArray>
        <DataArray type="Int32" Name="offsets" format="ascii">
4 8 12 16 20 24 28 32 36 
        </DataArray>
        <DataArray type="UInt8" Name="types" format="ascii">
9 9 9 9 9 9 9 9 9 
        </DataArray>
      </Cells>
      <PointData>
        <DataArray type="Float64" Name="u">
          0.00000000e+00 -5.00794553e+00 -3.39003532e+00 -4.00527803e-01 0.00000000e+00 -7.28986869e+00 -9.63462007e+00 -1.21931135e+01 0.00000000e+00 -7.87071424e+00 -1.24136207e+01 -1.85195258e+01 0.00000000e+00 -7.30314174e+00 -1.24020530e+01 -2.00077487e+01 
        </DataArray>
        <DataArray type="Float64" Name="v">
          0.00000000e+00 -1.60276916e+01 -1.15305721e+01 -3.33164107e+00 0.00000000e+00 -1.31949420e+01 -1.09325563e+01 -5.20252997e+00 0.00000000e+00 -1.02523180e+01 -9.05545393e+00 -5.22800367e+00 0.00000000e+00 -6.28415543e+00 -6.04446918e+00 -4.00208063e+00 
        </DataArray>
        <DataArray type="Float64" Name="p">
          -6.15496793e+03 -6.08128922e+03 -6.00761052e+03 -5.93393181e+03 -6.06322865e+03 -5.99877634e+03 -5.93432403e+03 -5.86987172e+03 -5.97148936e+03 -5.91626345e+03 -5.86103754e+03 -5.80581163e+03 -5.87975008e+03 -5.83375057e+03 -5.78775105e+03 -5.74175154e+03 
        </DataArray>
      </PointData>
    </Piece>
    <Piece NumberOfPoints="16" NumberOfCells="9">
      <Points>
        <DataArray type="Float64" NumberOfComponents="3" format="ascii">
          2.50000000e+00 8.00000000e+00 0.00000000e+00 
3.33333325e+00 8.00000000e+00 0.00000000e+00 
4.16666651e+00 8.00000000e+00 0.00000000e+00 
5.00000000e+00 8.00000000e+00 0.00000000e+00 
2.50000000e+00 8.33333302e+00 0.00000000e+00 
3.33333325e+00 8.33333302e+00 0.00000000e+00 
4.16666651e+00 8.33333302e+00 0.00000000e+00 
5.00000000e+00 8.33333302e+00 0.00000000e+00 
2.50000000e+00 8.66666698e+00 0.00000000e+00 
3.33333325e+00 8.66666698e+00 0.00000000e+00 
4.16666651e+00 8.66666698e+00 0.00000000e+00 
5.00000000e+00 8.66666698e+00 0.00000000e+00 
2.50000000e+00 9.00000000e+00 0.00000000e+00 
3.33333325e+00 9.00000000e+00 0.00000000e+00 
4.16666651e+00 9.00000000e+00 0.00000000e+00 
5.00000000e+00 9.00000000e+00 0.00000000e+00 

        </DataArray>
      </Points>
      <Cells>
        <DataArray type="Int32" Name="connectivity" format="ascii">
0 1 5 4
4 5 9 8
8 9 13 12
1 2 6 5
5 6 10 9
9 10 14 13
2 3 7 6
6 7 11 10
10 11 15 14

        </DataArray>
        <DataArray type="Int32" Name="offsets" format="ascii">
4 8 12 16 20 24 28 32 36 
        </DataArray>
        <DataArray type="UInt8" Name="types" format="ascii">
9 9 9 9 9 9 9 9 9 
        </DataArray>
      </Cells>
      <PointData>
        <DataArray type="Float64" Name="u">
          0.00000000e+00 -7.30314174e+00 -1.24020530e+01 -2.00077487e+01 0.00000000e+00 -5.79355055e+00 -9.99841092e+00 -1.72001540e+01 0.00000000e+00 -3.36045041e+00 -5.65423654e+00 -1.02872252e+01 0.00000000e+00 0.00000000e+00 0.00000000e+00 0.00000000e+00 
        </DataArray>
        <DataArray type="Float64" Name="v">
          0.00000000e+00 -6.28415543e+00 -6.04446918e+00 -4.00208063e+00 0.00000000e+00 -2.89024850e+00 -2.93175462e+00 -2.04621426e+00 0.00000000e+00 -9.93147714e-01 -1.07330587e+00 -8.14705687e-01 0.00000000e+00 0.00000000e+00 0.00000000e+00 0.00000000e+00 
        </DataArray>
        <DataArray type="Float64" Name="p">
          -5.89450596e+03 -5.83772888e+03 -5.78095179e+03 -5.72417471e+03 -5.90769365e+03 -5.85127500e+03 -5.79485635e+03 -5.73843770e+03 -5.92088133e+03 -5.86482112e+03 -5.80876091e+03 -5.75270070e+03 -5.93406901e+03 -5.87836724e+03 -5.82266547e+03 -5.76696370e+03 
        </DataArray>
      </PointData>
    </Piece>
    <Piece NumberOfPoints="16" NumberOfCells="9">
      <Points>
        <DataArray type="Float64" NumberOfComponents="3" format="ascii">
          5.00000000e+00 0.00000000e+00 0.00000000e+00 
5.83333349e+00 0.00000000e+00 0.00000000e+00 
6.66666651e+00 0.00000000e+00 0.00000000e+00 
7.50000000e+00 0.00000000e+00 0.00000000e+00 
5.00000000e+00 3.33333343e-01 0.00000000e+00 
5.83333349e+00 3.33333343e-01 0.00000000e+00 
6.66666651e+00 3.33333343e-01 0.00000000e+00 
7.50000000e+00 3.33333343e-01 0.00000000e+00 
5.00000000e+00 6.66666687e-01 0.00000000e+00 
5.83333349e+00 6.66666687e-01 0.00000000e+00 
6.66666651e+00 6.66666687e-01 0.00000000e+00 
7.50000000e+00 6.66666687e-01 0.00000000e+00 
5.00000000e+00 1.00000000e+00 0.00000000e+00 
5.83333349e+00 1.00000000e+00 0.00000000e+00 
6.66666651e+00 1.00000000e+00 0.00000000e+00 
7.50000000e+00 1.00000000e+00 0.00000000e+00 

        </DataArray>
      </Points>
      <Cells>
        <DataArray type="Int32" Name="connectivity" format="ascii">
0 1 5 4
4 5 9 8
8 9 13 12
1 2 6 5
5 6 10 9
9 10 14 13
2 3 7 6
6 7 11 10
10 11 15 14

        </DataArray>
        <DataArray type="Int32" Name="offsets" format="ascii">
4 8 12 16 20 24 28 32 36 
        </DataArray>
        <DataArray type="UInt8" Name="types" format="ascii">
9 9 9 9 9 9 9 9 9 
        </DataArray>
      </Cells>
      <PointData>
        <DataArray type="Float64" Name="u">