<?xml version="1.0"?>
<VTKFile type="UnstructuredGrid" version="0.1" byte_order="LittleEndian">
  <UnstructuredGrid>
    <Piece NumberOfPoints="16" NumberOfCells="9">
      <Points>
        <DataArray type="Float64" NumberOfComponents="3" format="ascii">
          0.00000000e+00 3.00000000e+00 0.00000000e+00 
8.33333313e-01 3.00000000e+00 0.00000000e+00 
1.66666663e+00 3.00000000e+00 0.00000000e+00 
2.50000000e+00 3.00000000e+00 0.00000000e+00 
0.00000000e+00 3.33333325e+00 0.00000000e+00 
8.33333313e-01 3.33333325e+00 0.00000000e+00 
1.66666663e+00 3.33333325e+00 0.00000000e+00 
2.50000000e+00 3.33333325e+00 0.00000000e+00 
0.00000000e+00 3.66666675e+00 0.00000000e+00 
8.33333313e-01 3.66666675e+00 0.00000000e+00 
1.66666663e+00 3.66666675e+00 0.00000000e+00 
2.50000000e+00 3.66666675e+00 0.00000000e+00 
0.00000000e+00 4.00000000e+00 0.00000000e+00 
8.33333313e-01 4.00000000e+00 0.00000000e+00 
1.66666663e+00 4.00000000e+00 0.00000000e+00 
2.50000000e+00 4.00000000e+00 0.00000000e+00 

        </DataArray>
      </Points>
      <Cells>
        <DataArray type="Int32" Name="connectivity" format="ascii">
0 1 5 4
4 5 9 8
8 9 13 12
1 2 6 5
5 6 10 9
9 10 14 13
2 3 7 6
6 7 11 10
10 11 15 14

        </DataArray>
        <DataArray type="Int32" Name="offsets" format="ascii">
4 8 12 16 20 24 28 32 36 
        </DataArray>
        <DataArray type="UInt8" Name="types" format="ascii">
9 9 9 9 9 9 9 9 9 
        </DataArray>
      </Cells>
      <PointData>
        <DataArray type="Float64" Name="u">
          0.00000000e+00 0.00000000e+00 0.00000000e+00 0.00000000e+00 8.88888889e+01 8.74277249e+01 8.77881453e+01 8.35315918e+01 1.55555556e+02 1.53401506e+02 1.54304404e+02 1.49448948e+02 2.00000000e+02 1.97739459e+02 1.98843067e+02 1.94600843e+02 
        </DataArray>
        <DataArray type="Float64" Name="v">
          0.00000000e+00 0.00000000e+00 0.00000000e+00 0.00000000e+00 0.00000000e+00 4.33725380e-01 1.19937130e+00 6.37361696e-01 0.00000000e+00 4.52364920e-01 1.35952730e+00 2.11301159e+00 0.00000000e+00 1.25661132e+00 2.75980626e+00 3.86709531e+00 
        </DataArray>
        <DataArray type="Float64" Name="p">
          -1.55801789e+03 -2.78597729e+03 -4.01393669e+03 -5.24189609e+03 -1.58833255e+03 -2.81761799e+03 -4.04690343e+03 -5.27618887e+03 -1.61864720e+03 -2.84925868e+03 -4.07987016e+03 -5.31048165e+03 -1.64896185e+03 -2.88089938e+03 -4.11283690e+03 -5.34477442e+03 
        </DataArray>
      </PointData>
    </Piece>
    <Piece NumberOfPoints="16" NumberOfCells="9">
      <Points>
        <DataArray type="Float64" NumberOfComponents="3" format="ascii">
          0.00000000e+00 4.00000000e+00 0.00000000e+00 
8.33333313e-01 4.00000000e+00 0.00000000e+00 
1.66666663e+00 4.00000000e+00 0.00000000e+00 
2.50000000e+00 4.00000000e+00 0.00000000e+00 
0.00000000e+00 4.33333349e+00 0.00000000e+00 
8.33333313e-01 4.33333349e+00 0.00000000e+00 
1.66666663e+00 4.33333349e+00 0.00000000e+00 
2.50000000e+00 4.33333349e+00 0.00000000e+00 
0.00000000e+00 4.66666651e+00 0.00000000e+00 
8.33333313e-01 4.66666651e+00 0.00000000e+00 
1.66666663e+00 4.66666651e+00 0.00000000e+00 
2.50000000e+00 4.66666651e+00 0.00000000e+00 
0.00000000e+00 5.00000000e+00 0.00000000e+00 
8.33333313e-01 5.00000000e+00 0.00000000e+00 
1.66666663e+00 5.00000000e+00 0.00000000e+00 
2.50000000e+00 5.00000000e+00 0.00000000e+00 

        </DataArray>
      </Points>
      <Cells>
        <DataArray type="Int32" Name="connectivity" format="ascii">
0 1 5 4
4 5 9 8
8 9 13 12
1 2 6 5
5 6 10 9
9 10 14 13
2 3 7 6
6 7 11 10
10 11 15 14

        </DataArray>
        <DataArray type="Int32" Name="offsets" format="ascii">
4 8 12 16 20 24 28 32 36 
        </DataArray>
        <DataArray type="UInt8" Name="types" format="ascii">
9 9 9 9 9 9 9 9 9 
        </DataArray>
      </Cells>
      <PointData>
        <DataArray type="Float64" Name="u">
          2.00000000e+02 1.97739459e+02 1.98843067e+02 1.94600843e+02 2.22222222e+02 2.20605662e+02 2.21603960e+02 2.19182906e+02 2.22222222e+02 2.21563155e+02 2.22678117e+02 2.22149129e+02 2.00000000e+02 2.00404109e+02 2.01707458e+02 2.03086269e+02 
        </DataArray>
        <DataArray type="Float64" Name="v">
          0.00000000e+00 1.25661132e+00 2.75980626e+00 3.86709531e+00 0.00000000e+00 1.86156015e+00 3.42084161e+00 5.20622387e+00 0.00000000e+00 1.87228667e+00 3.61794818e+00 5.13492662e+00 0.00000000e+00 1.83917097e+00 3.20495837e+00 5.44400673e+00 
        </DataArray>
        <DataArray type="Float64" Name="p">
          -1.64412418e+03 -2.89405675e+03 -4.14398931e+03 -5.39392187e+03 -1.80624099e+03 -3.05243230e+03 -4.29862362e+03 -5.54481493e+03 -1.96835779e+03 -3.21080786e+03 -4.45325793e+03 -5.69570799e+03 -2.13047460e+03 -3.36918342e+03 -4.60789224e+03 -5.84660105e+03 
        </DataArray>
      </PointData>
    </Piece>
    <Piece NumberOfPoints="16" NumberOfCells="9">
      <Points>
        <DataArray type="Float64" NumberOfComponents="3" format="ascii">
          0.00000000e+00 5.00000000e+00 0.00000000e+00 
8.33333313e-01 5.00000000e+00 0.00000000e+00 
1.66666663e+00 5.00000000e+00 0.00000000e+00 
2.50000000e+00 5.00000000e+00 0.00000000e+00 
0.00000000e+00 5.33333349e+00 0.00000000e+00 
8.33333313e-01 5.33333349e+00 0.00000000e+00 
1.66666663e+00 5.33333349e+00 0.00000000e+00 
2.50000000e+00 5.33333349e+00 0.00000000e+00 
0.00000000e+00 5.66666651e+00 0.00000000e+00 
8.33333313e-01 5.66666651e+00 0.00000000e+00 
1.66666663e+00 5.66666651e+00 0.00000000e+00 
2.50000000e+00 5.66666651e+00 0.00000000e+00 
0.00000000e+00 6.00000000e+00 0.00000000e+00 
8.33333313e-01 6.00000000e+00 0.00000000e+00 
1.66666663e+00 6.00000000e+00 0.00000000e+00 
2.50000000e+00 6.00000000e+00 0.00000000e+00 

        </DataArray>
      </Points>
      <Cells>
        <DataArray type="Int32" Name="connectivity" format="ascii">
0 1 5 4
4 5 9 8
8 9 13 12
1 2 6 5
5 6 10 9
9 10 14 13
2 3 7 6
6 7 11 10
10 11 15 14

        </DataArray>
        <DataArray type="Int32" Name="offsets" format="ascii">
4 8 12 16 20 24 28 32 36 
        </DataArray>
        <DataArray type="UInt8" Name="types" format="ascii">
9 9 9 9 9 9 9 9 9 
        </DataArray>
      </Cells>
      <PointData>
        <DataArray type="Float64" Name="u">
          2.00000000e+02 2.00404109e+02 2.01707458e+02 2.03086269e+02 1.55555556e+02 1.57427977e+02 1.58055199e+02 1.62091947e+02 8.88888889e+01 9.15879486e+01 9.10934724e+01 9.84707372e+01 0.00000000e+00 0.00000000e+00 0.00000000e+00 0.00000000e+00 
        </DataArray>
        <DataArray type="Float64" Name="v">
          0.00000000e+00 1.83917097e+00 3.20495837e+00 5.44400673e+00 0.00000000e+00 8.46049436e-01 1.86695403e+00 3.64911623e+00 0.00000000e+00 9.30838261e-01 1.29767266e+00 3.81930024e+00 0.00000000e+00 0.00000000e+00 0.00000000e+00 0.00000000e+00 
        </DataArray>
        <DataArray type="Float64" Name="p">
          -2.16758986e+03 -3.40704005e+03 -4.64649024e+03 -5.88594043e+03 -2.18275179e+03 -3.44551448e+03 -4.70827716e+03 -5.97103985e+03 -2.19791371e+03 -3.48398890e+03 -4.77006409e+03 -6.05613927e+03 -2.21307563e+03 -3.52246332e+03 -4.83185101e+03 -6.14123869e+03 
        </DataArray>
      </PointData>
    </Piece>
    <Piece NumberOfPoints="16" NumberOfCells="9">
      <Points>
        <DataArray type="Float64" NumberOfComponents="3" format="ascii">
          2.50000000e+00 0.00000000e+00 0.00000000e+00 
3.33333325e+00 0.00000000e+00 0.00000000e+00 
4.16666651e+00 0.00000000e+00 0.00000000e+00 
5.00000000e+00 0.00000000e+00 0.00000000e+00 
2.50000000e+00 3.33333343e-01 0.00000000e+00 
3.33333325e+00 3.33333343e-01 0.00000000e+00 
4.16666651e+00 3.33333343e-01 0.00000000e+00 
5.00000000e+00 3.33333343e-01 0.00000000e+00 
2.50000000e+00 6.66666687e-01 0.00000000e+00 
3.33333325e+00 6.66666687e-01 0.00000000e+00 
4.16666651e+00 6.66666687e-01 0.00000000e+00 
5.00000000e+00 6.66666687e-01 0.00000000e+00 
2.50000000e+00 1.00000000e+00 0.00000000e+00 
3.33333325e+00 1.00000000e+00 0.00000000e+00 
4.16666651e+00 1.00000000e+00 0.00000000e+00 
5.00000000e+00 1.00000000e+00 0.00000000e+00 

        </DataArray>
      </Points>
      <Cells>
        <DataArray type="Int32" Name="connectivity" format="ascii">
0 1 5 4
4 5 9 8
8 9 13 12
1 2 6 5
5 6 10 9
9 10 14 13
2 3 7 6
6 7 11 10
10 11 15 14

        </DataArray>
        <DataArray type="Int32" Name="offsets" format="ascii">
4 8 12 16 20 24 28 32 36 
        </DataArray>
        <DataArray type="UInt8" Name="types" format="ascii">
9 9 9 9 9 9 9 9 9 
        </DataArray>
      </Cells>
      <PointData>
        <DataArray type="Float64" Name="u">
          0.00000000e+00 0.00000000e+00 0.00000000e+00 0.00000000e+00 0.00000000e+00 -2.45294734e+00 -4.27273569e+00 -7.56168818e+00 0.00000000e+00 -4.36799328e+00 -7.79775447e+00 -1.29886907e+01 0.00000000e+00 -5.75972407e+00 -1.01852227e+01 -1.61413858e+01 
        </DataArray>
        <DataArray type="Float64" Name="v">
          0.00000000e+00 0.00000000e+00 0.00000000e+00 0.00000000e+00 0.00000000e+00 7.23535632e-01 7.80764898e-01 5.00558225e-01 0.00000000e+00 2.19558361e+00 2.19097736e+00 1.42086850e+00 0.00000000e+00 4.86473227e+00 4.52056454e+00 2.96111857e+00 
        </DataArray>
        <DataArray type="Float64" Name="p">
          -4.62132399e+03 -4.59047578e+03 -4.55962758e+03 -4.52877937e+03 -4.61018720e+03 -4.57936048e+03 -4.54853377e+03 -4.51770706e+03 -4.59905040e+03 -4.56824518e+03 -4.53743997e+03 -4.50663475e+03 -4.58791361e+03 -4.55712989e+03 -4.52634616e+03 -4.49556243e+03 
        </DataArray>
      </PointData>
    </Piece>
    <Piece NumberOfPoints="16" NumberOfCells="9">
      <Points>
        <DataArray type="Float64" NumberOfComponents="3" format="ascii">
          2.50000000e+00 1.00000000e+00 0.00000000e+00 
3.33333325e+00 1.00000000e+00 0.00000000e+00 
4.16666651e+00 1.00000000e+00 0.00000000e+00 
5.00000000e+00 1.00000000e+00 0.00000000e+00 
2.50000000e+00 1.33333337e+00 0.00000000e+00 
3.33333325e+00 1.33333337e+00 0.00000000e+00 
4.16666651e+00 1.33333337e+00 0.00000000e+00 
5.00000000e+00 1.33333337e+00 0.00000000e+00 
2.50000000e+00 1.66666663e+00 0.00000000e+00 
3.33333325e+00 1.66666663e+00 0.00000000e+00 
4.16666651e+00 1.66666663e+00 0.00000000e+00 
5.00000000e+00 1.66666663e+00 0.00000000e+00 
2.50000000e+00 2.00000000e+00 0.00000000e+00 
3.33333325e+00 2.00000000e+00 0.00000000e+00 
4.16666651e+00 2.00000000e+00 0.00000000e+00 
5.00000000e+00 2.00000000e+00 0.00000000e+00 

        </DataArray>
      </Points>
      <Cells>
        <DataArray type="Int32" Name="connectivity" format="ascii">
0 1 5 4
4 5 9 8
8 9 13 12
1 2 6 5
5 6 10 9
9 10 14 13
2 3 7 6
6 7 11 10
10 11 15 14

        </DataArray>
        <DataArray type="Int32" Name="offsets" format="ascii">
4 8 12 16 20 24 28 32 36 
        </DataArray>
        <DataArray type="UInt8" Name="types" format="ascii">
9 9 9 9 9 9 9 9 9 
        </DataArray>
      </Cells>
      <PointData>
        <DataArray type="Float64" Name="u">
          0.00000000e+00 -5.75972407e+00 -1.01852227e+01 -1.61413858e+01 0.00000000e+00 -6.61614513e+00 -1.11413259e+01 -1.68196022e+01 0.00000000e+00 -6.69921018e+00 -1.02261669e+01 -1.44036509e+01 0.00000000e+00 -5.48450271e+00 -6.74165734e+00 -8.15023986e+00 
        </DataArray>
        <DataArray type="Float64" Name="v">
          0.00000000e+00 4.86473227e+00 4.52056454e+00 2.96111857e+00 0.00000000e+00 8.22169554e+00 7.03669499e+00 4.34848201e+00 0.00000000e+00 1.09345150e+01 8.93370437e+00 5.13499936e+00 0.00000000e+00 1.39981327e+01 1.03852755e+01 5.15133834e+00 
        </DataArray>
        <DataArray type="Float64" Name="p">
          -4.57372986e+03 -4.54992611e+03 -4.52612236e+03 -4.50231861e+03 -4.64778857e+03 -4.60980262e+03 -4.57181667e+03 -4.53383073e+03 -4.72184727e+03 -4.66967913e+03 -4.61751099e+03 -4.56534284e+03 -4.79590598e+03 -4.72955564e+03 -4.66320530e+03 -4.59685496e+03 
        </DataArray>
      </PointData>
    </Piece>
    <Piece NumberOfPoints="16" NumberOfCells="9">
      <Points>
        <DataArray type="Float64" NumberOfComponents="3" format="ascii">
          2.50000000e+00 2.00000000e+00 0.00000000e+00 
3.33333325e+00 2.00000000e+00 0.00000000e+00 
4.16666651e+00 2.00000000e+00 0.00000000e+00 
5.00000000e+00 2.00000000e+00 0.00000000e+00 
2.50000000e+00 2.33333325e+00 0.00000000e+00 
3.33333325e+00 2.33333325e+00 0.00000000e+00 
4.16666651e+00 2.33333325e+00 0.00000000e+00 
5.00000000e+00 2.33333325e+00 0.00000000e+00 
2.50000000e+00 2.66666675e+00 0.00000000e+00 
3.33333325e+00 2.66666675e+00 0.00000000e+00 
4.16666651e+00 2.66666675e+00 0.00000000e+00 
5.00000000e+00 2.66666675e+00 0.00000000e+00 
2.50000000e+00 3.00000000e+00 0.00000000e+00 
3.33333325e+00 3.00000000e+00 0.00000000e+00 
4.16666651e+00 3.00000000e+00 0.00000000e+00 
5.00000000e+00 3.00000000e+00 0.00000000e+00 

        </DataArray>
      </Points>
      <Cells>
        <DataArray type="Int32" Name="connectivity" format="ascii">
0 1 5 4
4 5 9 8
8 9 13 12
1 2 6 5
5 6 10 9
9 10 14 13
2 3 7 6
6 7 11 10
10 11 15 14

        </DataArray>
        <DataArray type="Int32" Name="offsets" format="ascii">
4 8 12 16 20 24 28 32 36 
        </DataArray>
        <DataArray type="UInt8" Name="types" format="ascii">
9 9 9 9 9 9 9 9 9 
        </DataArray>
      </Cells>
      <PointData>
        <DataArray type="Float64" Name="u">
          0.00000000e+00 -5.48450271e+00 -6.74165734e+00 -8.15023986e+00 0.00000000e+00 -1.87088781e+00 -4.07748835e-03 4.15452914e+00 0.00000000e+00 8.97655915e+00 1.36663538e+01 2.32181619e+01 0.00000000e+00 3.89861580e+01 4.02477926e+01 5.20460129e+01 
        </DataArray>
        <DataArray type="Float64" Name="v">
          0.00000000e+00 1.39981327e+01 1.03852755e+01 5.15133834e+00 0.00000000e+00 1.59370255e+01 9.53758946e+00 3.48200679e+00 0.00000000e+00 1.38262605e+01 8.13866924e+00 2.24145744e+00 0.00000000e+00 5.19808250e+00 3.50228347e+00 1.79492660e+00 
        </DataArray>
        <DataArray type="Float64" Name="p">
          -4.76908586e+03 -4.73867333e+03 -4.70826080e+03 -4.67784827e+03 -5.04156547e+03 -4.87939463e+03 -4.71722380e+03 -4.55505296e+03 -5.31404508e+03 -5.02011593e+03 -4.72618679e+03 -4.43225765e+03 -5.58652469e+03 -5.16083724e+03 -4.73514979e+03 -4.30946234e+03 
        </DataArray>
      </PointData>
    </Piece>
    <Piece NumberOfPoints="16" NumberOfCells="9">
      <Points>
        <DataArray type="Float64" NumberOfComponents="3" format="ascii">
          2.50000000e+00 3.00000000e+00 0.00000000e+00 
3.33333325e+00 3.00000000e+00 0.00000000e+00 
4.16666651e+00 3.00000000e+00 0.00000000e+00 
5.00000000e+00 3.00000000e+00 0.00000000e+00 
2.50000000e+00 3.33333325e+00 0.00000000e+00 
3.33333325e+00 3.33333325e+00 0.00000000e+00 
4.16666651e+00 3.33333325e+00 0.00000000e+00 
5.00000000e+00 3.33333325e+00 0.00000000e+00 
2.50000000e+00 3.66666675e+00 0.00000000e+00 
3.33333325e+00 3.66666675e+00 0.00000000e+00 
4.16666651e+00 3.66666675e+00 0.00000000e+00 
5.00000000e+00 3.66666675e+00 0.00000000e+00 
2.50000000e+00 4.00000000e+00 0.00000000e+00 
3.33333325e+00 4.00000000e+00 0.00000000e+00 
4.16666651e+00 4.00000000e+00 0.00000000e+00 
5.00000000e+00 4.00000000e+00 0.00000000e+00 

        </DataArray>
      </Points>
      <Cells>
        <DataArray type="Int32" Name="connectivity" format="ascii">
0 1 5 4
4 5 9 8
8 9 13 12
1 2 6 5
5 6 10 9
9 10 14 13
2 3 7 6
6 7 11 10
10 11 15 14

        </DataArray>
        <DataArray type="Int32" Name="offsets" format="ascii">
4 8 12 16 20 24 28 32 36 
        </DataArray>
        <DataArray type="UInt8" Name="types" format="ascii">
9 9 9 9 9 9 9 9 9 
        </DataArray>
      </Cells>
      <PointData>
        <DataArray type="Float64" Name="u">
          0.00000000e+00 3.89861580e+01 4.02477926e+01 5.20460129e+01 8.35315918e+01 8.59426265e+01 8.53604190e+01 8.60498592e+01 1.49448948e+02 1.42200805e+02 1.37310356e+02 1.29696660e+02 1.94600843e+02 1.85965848e+02 1.80952508e+02 1.69695402e+02 
        </DataArray>
        <DataArray type="Float64" Name="v">
          0.00000000e+00 5.19808250e+00 3.50228347e+00 1.79492660e+00 6.37361696e-01 -1.31623084e+00 1.82785458e+00 5.11479446e+00 2.11301159e+00 -1.24674081e+00 8.12483899e-01 6.04307495e+00 3.86709531e+00 2.68612119e+00 5.40068964e+00 9.59309303e+00 
        </DataArray>
        <DataArray type="Float64" Name="p">
          -5.62165273e+03 -5.10523759e+03 -4.58882245e+03 -4.07240731e+03 -5.31344416e+03 -4.99383489e+03 -4.67422563e+03 -4.35461636e+03 -5.00523558e+03 -4.88243219e+03 -4.75962880e+03 -4.63682542e+03 -4.69702700e+03 -4.77102949e+03 -4.84503198e+03 -4.91903447e+03 
        </DataArray>
      </PointData>
    </Piece>
    <Piece NumberOfPoints="16" NumberOfCells="9">
      <Points>
        <DataArray type="Float64" NumberOfComponents="3" format="ascii">
          2.50000000e+00 4.00000000e+00 0.00000000e+00 
3.33333325e+00 4.00000000e+00 0.00000000e+00 
4.16666651e+00 4.00000000e+00 0.00000000e+00 
5.00000000e+00 4.00000000e+00 0.00000000e+00 
2.50000000e+00 4.33333349e+00 0.00000000e+00 
3.33333325e+00 4.33333349e+00 0.00000000e+00 
4.16666651e+00 4.33333349e+00 0.00000000e+00 
5.00000000e+00 4.33333349e+00 0.00000000e+00 
2.50000000e+00 4.66666651e+00 0.00000000e+00 
3.33333325e+00 4.66666651e+00 0.00000000e+00 
4.16666651e+00 4.66666651e+00 0.00000000e+00 
5.00000000e+00 4.66666651e+00 0.00000000e+00 
2.50000000e+00 5.00000000e+00 0.00000000e+00 
3.33333325e+00 5.00000000e+00 0.00000000e+00 
4.16666651e+00 5.00000000e+00 0.00000000e+00 
5.00000000e+00 5.00000000e+00 0.00000000e+00 

        </DataArray>
      </Points>
      <Cells>
        <DataArray type="Int32" Name="connectivity" format="ascii">
0 1 5 4
4 5 9 8
8 9 13 12
1 2 6 5
5 6 10 9
9 10 14 13
2 3 7 6
6 7 11 10
10 11 15 14

        </DataArray>
        <DataArray type="Int32" Name="offsets" format="ascii">
4 8 12 16 20 24 28 32 36 
        </DataArray>
        <DataArray type="UInt8" Name="types" format="ascii">
9 9 9 9 9 9 9 9 9 
        </DataArray>
      </Cells>
      <PointData>
        <DataArray type="Float64" Name="u">
          1.94600843e+02 1.85965848e+02 1.80952508e+02 1.69695402e+02 2.19182906e+02 2.10660810e+02 2.06853512e+02 1.96349609e+02 2.22149129e+02 2.14888441e+02 2.13446780e+02 2.05297899e+02 2.03086269e+02 1.97625179e+02 1.99834723e+02 1.94525295e+02 
        </DataArray>
        <DataArray type="Float64" Name="v">
          3.86709531e+00 2.68612119e+00 5.40068964e+00 9.59309303e+00 5.20622387e+00 7.30681731e+00 9.46447918e+00 1.25782257e+01 5.13492662e+00 8.23567411e+00 1.18586443e+01 1.50683063e+01 5.44400673e+00 1.15761752e+01 1.42558037e+01 1.57886754e+01 
        </DataArray>
        <DataArray type="Float64" Name="p">
          -4.57553846e+03 -4.74116357e+03 -4.90678868e+03 -5.07241378e+03 -4.80198617e+03 -5.00105465e+03 -5.20012314e+03 -5.39919163e+03 -5.02843387e+03 -5.26094574e+03 -5.49345761e+03 -5.72596948e+03 -5.25488157e+03 -5.52083682e+03 -5.78679207e+03 -6.05274732e+03 
        </DataArray>
      </PointData>
    </Piece>
    <Piece NumberOfPoints="16" NumberOfCells="9">
      <Points>
        <DataArray type="Float64" NumberOfComponents="3" format="ascii">
          2.50000000e+00 5.00000000e+00 0.00000000e+00 
3.33333325e+00 5.00000000e+00 0.00000000e+00 
4.16666651e+00 5.00000000e+00 0.00000000e+00 
5.00000000e+00 5.00000000e+00 0.00000000e+00 
2.50000000e+00 5.33333349e+00 0.00000000e+00 
3.33333325e+00 5.33333349e+00 0.00000000e+00 
4.16666651e+00 5.33333349e+00 0.00000000e+00 
5.00000000e+00 5.33333349e+00 0.00000000e+00 
2.50000000e+00 5.66666651e+00 0.00000000e+00 
3.33333325e+00 5.66666651e+00 0.00000000e+00 
4.16666651e+00 5.66666651e+00 0.00000000e+00 
5.00000000e+00 5.66666651e+00 0.00000000e+00 
2.50000000e+00 6.00000000e+00 0.00000000e+00 
3.33333325e+00 6.00000000e+00 0.00000000e+00 
4.16666651e+00 6.00000000e+00 0.00000000e+00 
5.00000000e+00 6.00000000e+00 0.00000000e+00 

        </DataArray>
      </Points>
      <Cells>
        <DataArray type="Int32" Name="connectivity" format="ascii">
0 1 5 4
4 5 9 8
8 9 13 12
1 2 6 5
5 6 10 9
9 10 14 13
2 3 7 6
6 7 11 10
10 11 15 14

        </DataArray>
        <DataArray type="Int32" Name="offsets" format="ascii">
4 8 12 16 20 24 28 32 36 
        </DataArray>
        <DataArray type="UInt8" Name="types" format="ascii">
9 9 9 9 9 9 9 9 9 
        </DataArray>
      </Cells>
      <PointData>
        <DataArray type="Float64" Name="u">
          2.03086269e+02 1.97625179e+02 1.99834723e+02 1.94525295e+02 1.62091947e+02 1.60497878e+02 1.65141854e+02 1.66662038e+02 9.84707372e+01 1.05700184e+02 1.15689859e+02 1.26173607e+02 0.00000000e+00 5.26768997e+01 6.32177713e+01 8.59225575e+01 
        </DataArray>
        <DataArray type="Float64" Name="v">
          5.44400673e+00 1.15761752e+01 1.42558037e+01 1.57886754e+01 3.64911623e+00 1.21579480e+01 1.46145028e+01 1.36826840e+01 3.81930024e+00 1.18160784e+01 1.27509963e+01 1.17764011e+01 0.00000000e+00 8.72147588e-01 5.48900384e+00 9.97297849e+00 
        </DataArray>
        <DataArray type="Float64" Name="p">
          -5.44201034e+03 -5.64730958e+03 -5.85260882e+03 -6.05790806e+03 -6.08262202e+03 -6.01097738e+03 -5.93933275e+03 -5.86768811e+03 -6.72323370e+03 -6.37464519e+03 -6.02605668e+03 -5.67746816e+03 -7.36384538e+03 -6.73831299e+03 -6.11278060e+03 -5.48724822e+03 
        </DataArray>
      </PointData>
    </Piece>
    <Piece NumberOfPoints="16" NumberOfCells="9">
      <Points>
        <DataArray type="Float64" NumberOfComponents="3" format="ascii">
          2.50000000e+00 6.00000000e+00 0.00000000e+00 
3.33333325e+00 6.00000000e+00 0.00000000e+00 
4.16666651e+00 6.00000000e+00 0.00000000e+00 
5.00000000e+00 6.00000000e+00 0.00000000e+00 
2.50000000e+00 6.33333349e+00 0.00000000e+00 
3.33333325e+00 6.33333349e+00 0.00000000e+00 
4.16666651e+00 6.33333349e+00 0.00000000e+00 
5.00000000e+00 6.33333349e+00 0.00000000e+00 
2.50000000e+00 6.66666651e+00 0.00000000e+00 
3.33333325e+00 6.66666651e+00 0.00000000e+00 
4.16666651e+00 6.66666651e+00 0.00000000e+00 
5.00000000e+00 6.66666651e+00 0.00000000e+00 
2.50000000e+00 7.00000000e+00 0.00000000e+00 
3.33333325e+00 7.00000000e+00 0.00000000e+00 
4.16666651e+00 7.00000000e+00 0.00000000e+00 
5.00000000e+00 7.00000000e+00 0.00000000e+00 

        </DataArray>
      </Points>
      <Cells>
        <DataArray type="Int32" Name="connectivity" format="ascii">
0 1 5 4
4 5 9 8
8 9 13 12
1 2 6 5
5 6 10 9
9 10 14 13
2 3 7 6
6 7 11 10
10 11 15 14

        </DataArray>
        <DataArray type="Int32" Name="offsets" format="ascii">
4 8 12 16 20 24 28 32 36 
        </DataArray>
        <DataArray type="UInt8" Name="types" format="ascii">
9 9 9 9 9 9 9 9 9 
        </DataArray>
      </Cells>
      <PointData>
        <DataArray type="Float64" Name="u">
          0.00000000e+00 5.26768997e+01 6.32177713e+01 8.59225575e+01 0.00000000e+00 1.46721112e+01 2.67062104e+01 4.75314388e+01 0.00000000e+00 2.23452330e-01 6.97705759e+00 1.97500228e+01 0.00000000e+00 -4.94991766e+00 -3.37352723e+00 -2.01321575e-01 
        </DataArray>
        <DataArray type="Float64" Name="v">
          0.00000000e+00 8.72147588e-01 5.48900384e+00 9.97297849e+00 0.00000000e+00 -1.24799743e+01 -3.86848578e+00 5.99847162e+00 0.00000000e+00 -1.69867622e+01 -8.32980903e+00 1.72907415e+00 0.00000000e+00 -1.59387803e+01 -1.15897475e+01 -3.38423219e+00 
        </DataArray>
        <DataArray type="Float64" Name="p">
          -7.23848690e+03 -6.70557116e+03 -6.17265543e+03 -5.63973969e+03 -6.91127215e+03 -6.55361973e+03 -6.19596731e+03 -5.83831489e+03 -6.58405739e+03 -6.40166829e+03 -6.21927919e+03 -6.03689009e+03 -6.25684264e+03 -6.24971685e+03 -6.24259107e+03 -6.23546529e+03 
        </DataArray>
      </PointData>
    </Piece>
    <Piece NumberOfPoints="16" NumberOfCells="9">
      <Points>
        <DataArray type="Float64" NumberOfComponents="3" format="ascii">
          2.50000000e+00 7.00000000e+00 0.00000000e+00 
3.33333325e+00 7.00000000e+00 0.00000000e+00 
4.16666651e+00 7.00000000e+00 0.00000000e+00 
5.00000000e+00 7.00000000e+00 0.00000000e+00 
2.50000000e+00 7.33333349e+00 0.00000000e+00 
3.33333325e+00 7.33333349e+00 0.00000000e+00 
4.16666651e+00 7.33333349e+00 0.00000000e+00 
5.00000000e+00 7.33333349e+00 0.00000000e+00 
2.50000000e+00 7.66666651e+00 0.00000000e+00 
3.33333325e+00 7.66666651e+00 0.00000000e+00 
4.16666651e+00 7.66666651e+00 0.00000000e+00 
5.00000000e+00 7.66666651e+00 0.00000000e+00 
2.50000000e+00 8.00000000e+00 0.00000000e+00 
3.33333325e+00 8.00000000e+00 0.00000000e+00 
4.16666651e+00 8.00000000e+00 0.00000000e+00 
5.00000000e+00 8.00000000e+00 0.00000000e+00 

        </DataArray>
      </Points>
      <Cells>
        <DataArray type="Int32" Name="connectivity" format="ascii">
0 1 5 4
4 5 9 8
8 9 13 12
1 2 6 5
5 6 10 9
9 10 14 13
2 3 7 6
6 7 11 10
10 11 15 14

        </DataArray>
        <DataArray type="Int32" Name="offsets" format="ascii">
4 8 12 16 20 24 28 32 36 
        </DataArray>
        <DataArray type="UInt8" Name="types" format="ascii">
9 9 9 9 9 9 9 9 9 
        </DataArray>
      </Cells>
      <PointData>
        <DataArray type="Float64" Name="u">
          0.00000000e+00 -4.94991766e+00 -3.37352723e+00 -2.01321575e-01 0.00000000e+00 -7.20589778e+00 -9.64195724e+00 -1.21467176e+01 0.00000000e+00 -7.78721227e+00 -1.24318938e+01 -1.85603499e+01 0.00000000e+00 -7.22707992e+00 -1.24144654e+01 -2.00745378e+01 
        </DataArray>
        <DataArray type="Float64" Name="v">
          0.00000000e+00 -1.59387803e+01 -1.15897475e+01 -3.38423219e+00 0.00000000e+00 -1.31220557e+01 -1.09975421e+01 -5.31408605e+00 0.00000000e+00 -1.01918378e+01 -9.10528980e+00 -5.34626658e+00 0.00000000e+00 -6.24123514e+00 -6.06407834e+00 -4.09505033e+00 
        </DataArray>
        <DataArray type="Float64" Name="p">
          -6.30156021e+03 -6.23886366e+03 -6.17616711e+03 -6.11347056e+03 -6.21580750e+03 -6.16007812e+03 -6.10434874e+03 -6.04861936e+03 -6.13005478e+03 -6.08129257e+03 -6.03253036e+03 -5.98376815e+03 -6.04430207e+03 -6.00250703e+03 -5.96071199e+03 -5.91891695e+03 
        </DataArray>
      </PointData>
    </Piece>
    <Piece NumberOfPoints="16" NumberOfCells="9">
      <Points>
        <DataArray type="Float64" NumberOfComponents="3" format="ascii">
          2.50000000e+00 8.00000000e+00 0.00000000e+00 
3.33333325e+00 8.00000000e+00 0.00000000e+00 
4.16666651e+00 8.00000000e+00 0.00000000e+00 
5.00000000e+00 8.00000000e+00 0.00000000e+00 
2.50000000e+00 8.33333302e+00 0.00000000e+00 
3.33333325e+00 8.33333302e+00 0.00000000e+00 
4.16666651e+00 8.33333302e+00 0.00000000e+00 
5.00000000e+00 8.33333302e+00 0.00000000e+00 
2.50000000e+00 8.66666698e+00 0.00000000e+00 
3.33333325e+00 8.66666698e+00 0.00000000e+00 
4.16666651e+00 8.66666698e+00 0.00000000e+00 
5.00000000e+00 8.66666698e+00 0.00000000e+00 
2.50000000e+00 9.00000000e+00 0.00000000e+00 
3.33333325e+00 9.00000000e+00 0.00000000e+00 
4.16666651e+00 9.00000000e+00 0.00000000e+00 
5.00000000e+00 9.00000000e+00 0.00000000e+00 

        </DataArray>
      </Points>
      <Cells>
        <DataArray type="Int32" Name="connectivity" format="ascii">
0 1 5 4
4 5 9 8
8 9 13 12
1 2 6 5
5 6 10 9
9 10 14 13
2 3 7 6
6 7 11 10
10 11 15 14

        </DataArray>
        <DataArray type="Int32" Name="offsets" format="ascii">
4 8 12 16 20 24 28 32 36 
        </DataArray>
        <DataArray type="UInt8" Name="types" format="ascii">
9 9 9 9 9 9 9 9 9 
        </DataArray>
      </Cells>
      <PointData>
        <DataArray type="Float64" Name="u">
          0.00000000e+00 -7.22707992e+00 -1.24144654e+01 -2.00745378e+01 0.00000000e+00 -5.72216965e+00 -9.98661273e+00 -1.72325968e+01 0.00000000e+00 -3.30635684e+00 -5.63111057e+00 -1.02517163e+01 0.00000000e+00 0.00000000e+00 0.00000000e+00 0.00000000e+00 
        </DataArray>
        <DataArray type="Float64" Name="v">
          0.00000000e+00 -6.24123514e+00 -6.06407834e+00 -4.09505033e+00 0.00000000e+00 -2.86646531e+00 -2.92433424e+00 -2.10074003e+00 0.00000000e+00 -9.83698212e-01 -1.06466923e+00 -8.39729675e-01 0.00000000e+00 0.00000000e+00 0.00000000e+00 0.00000000e+00 
        </DataArray>
        <DataArray type="Float64" Name="p">
          -6.05835925e+03 -6.00618887e+03 -5.95401848e+03 -5.90184810e+03 -6.07061507e+03 -6.01906522e+03 -5.96751536e+03 -5.91596550e+03 -6.08287090e+03 -6.03194156e+03 -5.98101223e+03 -5.93008290e+03 -6.09512672e+03 -6.04481791e+03 -5.99450911e+03 -5.94420030e+03 
        </DataArray>
      </PointData>
    </Piece>
    <Piece NumberOfPoints="16" NumberOfCells="9">
      <Points>
        <DataArray type="Float64" NumberOfComponents="3" format="ascii">
          5.00000000e+00 0.00000000e+00 0.00000000e+00 
5.83333349e+00 0.00000000e+00 0.00000000e+00 
6.66666651e+00 0.00000000e+00 0.00000000e+00 
7.50000000e+00 0.00000000e+00 0.00000000e+00 
5.00000000e+00 3.33333343e-01 0.00000000e+00 
5.83333349e+00 3.33333343e-01 0.00000000e+00 
6.66666651e+00 3.33333343e-01 0.00000000e+00 
7.50000000e+00 3.33333343e-01 0.00000000e+00 
5.00000000e+00 6.66666687e-01 0.00000000e+00 
5.83333349e+00 6.66666687e-01 0.00000000e+00 
6.66666651e+00 6.66666687e-01 0.00000000e+00 
7.50000000e+00 6.66666687e-01 0.00000000e+00 
5.00000000e+00 1.00000000e+00 0.00000000e+00 
5.83333349e+00 1.00000000e+00 0.00000000e+00 
6.66666651e+00 1.00000000e+00 0.00000000e+00 
7.50000000e+00 1.00000000e+00 0.00000000e+00 

        </DataArray>
      </Points>
      <Cells>
        <DataArray type="Int32" Name="connectivity" format="ascii">
0 1 5 4
4 5 9 8
8 9 13 12
1 2 6 5
5 6 10 9
9 10 14 13
2 3 7 6
6 7 11 10
10 11 15 14

        </DataArray>
        <DataArray type="Int32" Name="offsets" format="ascii">
4 8 12 16 20 24 28 32 36 
        </DataArray>
        <DataArray type="UInt8" Name="types" format="ascii">
9 9 9 9 9 9 9 9 9 
        </DataArray>
      </Cells>
      <PointData>
        <DataArray type="Float64" Name="u">