<?xml version="1.0"?>
<VTKFile type="UnstructuredGrid" version="0.1" byte_order="LittleEndian">
  <UnstructuredGrid>
    <Piece NumberOfPoints="16" NumberOfCells="9">
      <Points>
        <DataArray type="Float64" NumberOfComponents="3" format="ascii">
          0.00000000e+00 3.00000000e+00 0.00000000e+00 
8.33333313e-01 3.00000000e+00 0.00000000e+00 
1.66666663e+00 3.00000000e+00 0.00000000e+00 
2.50000000e+00 3.00000000e+00 0.00000000e+00 
0.00000000e+00 3.33333325e+00 0.00000000e+00 
8.33333313e-01 3.33333325e+00 0.00000000e+00 
1.66666663e+00 3.33333325e+00 0.00000000e+00 
2.50000000e+00 3.33333325e+00 0.00000000e+00 
0.00000000e+00 3.66666675e+00 0.00000000e+00 
8.33333313e-01 3.66666675e+00 0.00000000e+00 
1.66666663e+00 3.66666675e+00 0.00000000e+00 
2.50000000e+00 3.66666675e+00 0.00000000e+00 
0.00000000e+00 4.00000000e+00 0.00000000e+00 
8.33333313e-01 4.00000000e+00 0.00000000e+00 
1.66666663e+00 4.00000000e+00 0.00000000e+00 
2.50000000e+00 4.00000000e+00 0.00000000e+00 

        </DataArray>
      </Points>
      <Cells>
        <DataArray type="Int32" Name="connectivity" format="ascii">
0 1 5 4
4 5 9 8
8 9 13 12
1 2 6 5
5 6 10 9
9 10 14 13
2 3 7 6
6 7 11 10
10 11 15 14

        </DataArray>
        <DataArray type="Int32" Name="offsets" format="ascii">
4 8 12 16 20 24 28 32 36 
        </DataArray>
        <DataArray type="UInt8" Name="types" format="ascii">
9 9 9 9 9 9 9 9 9 
        </DataArray>
      </Cells>
      <PointData>
        <DataArray type="Float64" Name="u">
          0.00000000e+00 0.00000000e+00 0.00000000e+00 0.00000000e+00 8.88888889e+01 9.24123675e+01 9.15780876e+01 1.00708882e+02 1.55555556e+02 1.58113235e+02 1.58441568e+02 1.63755619e+02 2.00000000e+02 2.00942304e+02 2.01939570e+02 2.04458045e+02 
        </DataArray>
        <DataArray type="Float64" Name="v">
          0.00000000e+00 0.00000000e+00 0.00000000e+00 0.00000000e+00 0.00000000e+00 -1.23041677e+00 -1.78325171e+00 -4.26061823e+00 0.00000000e+00 -1.00939736e+00 -2.33019174e+00 -4.21843742e+00 0.00000000e+00 -2.32386542e+00 -4.07427893e+00 -6.61285336e+00 
        </DataArray>
        <DataArray type="Float64" Name="p">
          -3.08370797e+03 -4.16877694e+03 -5.25384591e+03 -6.33891488e+03 -3.05313518e+03 -4.11751409e+03 -5.18189299e+03 -6.24627189e+03 -3.02256240e+03 -4.06625123e+03 -5.10994007e+03 -6.15362890e+03 -2.99198961e+03 -4.01498838e+03 -5.03798715e+03 -6.06098591e+03 
        </DataArray>
      </PointData>
    </Piece>
    <Piece NumberOfPoints="16" NumberOfCells="9">
      <Points>
        <DataArray type="Float64" NumberOfComponents="3" format="ascii">
          0.00000000e+00 4.00000000e+00 0.00000000e+00 
8.33333313e-01 4.00000000e+00 0.00000000e+00 
1.66666663e+00 4.00000000e+00 0.00000000e+00 
2.50000000e+00 4.00000000e+00 0.00000000e+00 
0.00000000e+00 4.33333349e+00 0.00000000e+00 
8.33333313e-01 4.33333349e+00 0.00000000e+00 
1.66666663e+00 4.33333349e+00 0.00000000e+00 
2.50000000e+00 4.33333349e+00 0.00000000e+00 
0.00000000e+00 4.66666651e+00 0.00000000e+00 
8.33333313e-01 4.66666651e+00 0.00000000e+00 
1.66666663e+00 4.66666651e+00 0.00000000e+00 
2.50000000e+00 4.66666651e+00 0.00000000e+00 
0.00000000e+00 5.00000000e+00 0.00000000e+00 
8.33333313e-01 5.00000000e+00 0.00000000e+00 
1.66666663e+00 5.00000000e+00 0.00000000e+00 
2.50000000e+00 5.00000000e+00 0.00000000e+00 

        </DataArray>
      </Points>
      <Cells>
        <DataArray type="Int32" Name="connectivity" format="ascii">
0 1 5 4
4 5 9 8
8 9 13 12
1 2 6 5
5 6 10 9
9 10 14 13
2 3 7 6
6 7 11 10
10 11 15 14

        </DataArray>
        <DataArray type="Int32" Name="offsets" format="ascii">
4 8 12 16 20 24 28 32 36 
        </DataArray>
        <DataArray type="UInt8" Name="types" format="ascii">
9 9 9 9 9 9 9 9 9 
        </DataArray>
      </Cells>
      <PointData>
        <DataArray type="Float64" Name="u">
          2.00000000e+02 2.00942304e+02 2.01939570e+02 2.04458045e+02 2.22222222e+02 2.21926991e+02 2.22758077e+02 2.22763698e+02 2.22222222e+02 2.20696977e+02 2.21400813e+02 2.19019963e+02 2.00000000e+02 1.97536501e+02 1.98348684e+02 1.93637213e+02 
        </DataArray>
        <DataArray type="Float64" Name="v">
          0.00000000e+00 -2.32386542e+00 -4.07427893e+00 -6.61285336e+00 0.00000000e+00 -2.46693607e+00 -4.66856740e+00 -6.54045091e+00 0.00000000e+00 -2.47487492e+00 -4.50261381e+00 -6.60644287e+00 0.00000000e+00 -1.80930953e+00 -3.72134622e+00 -5.26048330e+00 
        </DataArray>
        <DataArray type="Float64" Name="p">
          -2.95308341e+03 -3.97437305e+03 -4.99566269e+03 -6.01695233e+03 -2.73318844e+03 -3.76910361e+03 -4.80501877e+03 -5.84093393e+03 -2.51329348e+03 -3.56383416e+03 -4.61437485e+03 -5.66491553e+03 -2.29339851e+03 -3.35856472e+03 -4.42373093e+03 -5.48889714e+03 
        </DataArray>
      </PointData>
    </Piece>
    <Piece NumberOfPoints="16" NumberOfCells="9">
      <Points>
        <DataArray type="Float64" NumberOfComponents="3" format="ascii">
          0.00000000e+00 5.00000000e+00 0.00000000e+00 
8.33333313e-01 5.00000000e+00 0.00000000e+00 
1.66666663e+00 5.00000000e+00 0.00000000e+00 
2.50000000e+00 5.00000000e+00 0.00000000e+00 
0.00000000e+00 5.33333349e+00 0.00000000e+00 
8.33333313e-01 5.33333349e+00 0.00000000e+00 
1.66666663e+00 5.33333349e+00 0.00000000e+00 
2.50000000e+00 5.33333349e+00 0.00000000e+00 
0.00000000e+00 5.66666651e+00 0.00000000e+00 
8.33333313e-01 5.66666651e+00 0.00000000e+00 
1.66666663e+00 5.66666651e+00 0.00000000e+00 
2.50000000e+00 5.66666651e+00 0.00000000e+00 
0.00000000e+00 6.00000000e+00 0.00000000e+00 
8.33333313e-01 6.00000000e+00 0.00000000e+00 
1.66666663e+00 6.00000000e+00 0.00000000e+00 
2.50000000e+00 6.00000000e+00 0.00000000e+00 

        </DataArray>
      </Points>
      <Cells>
        <DataArray type="Int32" Name="connectivity" format="ascii">
0 1 5 4
4 5 9 8
8 9 13 12
1 2 6 5
5 6 10 9
9 10 14 13
2 3 7 6
6 7 11 10
10 11 15 14

        </DataArray>
        <DataArray type="Int32" Name="offsets" format="ascii">
4 8 12 16 20 24 28 32 36 
        </DataArray>
        <DataArray type="UInt8" Name="types" format="ascii">
9 9 9 9 9 9 9 9 9 
        </DataArray>
      </Cells>
      <PointData>
        <DataArray type="Float64" Name="u">
          2.00000000e+02 1.97536501e+02 1.98348684e+02 1.93637213e+02 1.55555556e+02 1.52837007e+02 1.53614329e+02 1.47631057e+02 8.88888889e+01 8.66340692e+01 8.70751063e+01 8.07239412e+01 0.00000000e+00 0.00000000e+00 0.00000000e+00 0.00000000e+00 
        </DataArray>
        <DataArray type="Float64" Name="v">
          0.00000000e+00 -1.80930953e+00 -3.72134622e+00 -5.26048330e+00 0.00000000e+00 -6.86496647e-01 -1.84969625e+00 -3.08225044e+00 0.00000000e+00 -7.41333432e-01 -1.69887454e+00 -1.58327184e+00 0.00000000e+00 0.00000000e+00 0.00000000e+00 0.00000000e+00 
        </DataArray>
        <DataArray type="Float64" Name="p">
          -2.29070994e+03 -3.33639865e+03 -4.38208736e+03 -5.42777608e+03 -2.25232528e+03 -3.29245744e+03 -4.33258959e+03 -5.37272175e+03 -2.21394062e+03 -3.24851622e+03 -4.28309182e+03 -5.31766743e+03 -2.17555595e+03 -3.20457500e+03 -4.23359405e+03 -5.26261310e+03 
        </DataArray>
      </PointData>
    </Piece>
    <Piece NumberOfPoints="16" NumberOfCells="9">
      <Points>
        <DataArray type="Float64" NumberOfComponents="3" format="ascii">
          2.50000000e+00 0.00000000e+00 0.00000000e+00 
3.33333325e+00 0.00000000e+00 0.00000000e+00 
4.16666651e+00 0.00000000e+00 0.00000000e+00 
5.00000000e+00 0.00000000e+00 0.00000000e+00 
2.50000000e+00 3.33333343e-01 0.00000000e+00 
3.33333325e+00 3.33333343e-01 0.00000000e+00 
4.16666651e+00 3.33333343e-01 0.00000000e+00 
5.00000000e+00 3.33333343e-01 0.00000000e+00 
2.50000000e+00 6.66666687e-01 0.00000000e+00 
3.33333325e+00 6.66666687e-01 0.00000000e+00 
4.16666651e+00 6.66666687e-01 0.00000000e+00 
5.00000000e+00 6.66666687e-01 0.00000000e+00 
2.50000000e+00 1.00000000e+00 0.00000000e+00 
3.33333325e+00 1.00000000e+00 0.00000000e+00 
4.16666651e+00 1.00000000e+00 0.00000000e+00 
5.00000000e+00 1.00000000e+00 0.00000000e+00 

        </DataArray>
      </Points>
      <Cells>
        <DataArray type="Int32" Name="connectivity" format="ascii">
0 1 5 4
4 5 9 8
8 9 13 12
1 2 6 5
5 6 10 9
9 10 14 13
2 3 7 6
6 7 11 10
10 11 15 14

        </DataArray>
        <DataArray type="Int32" Name="offsets" format="ascii">
4 8 12 16 20 24 28 32 36 
        </DataArray>
        <DataArray type="UInt8" Name="types" format="ascii">
9 9 9 9 9 9 9 9 9 
        </DataArray>
      </Cells>
      <PointData>
        <DataArray type="Float64" Name="u">
          0.00000000e+00 0.00000000e+00 0.00000000e+00 0.00000000e+00 0.00000000e+00 -2.98443938e+00 -5.35368946e+00 -9.71454819e+00 0.00000000e+00 -5.27136471e+00 -9.64061440e+00 -1.67422496e+01 0.00000000e+00 -6.75145390e+00 -1.21618715e+01 -1.97824419e+01 
        </DataArray>
        <DataArray type="Float64" Name="v">
          0.00000000e+00 0.00000000e+00 0.00000000e+00 0.00000000e+00 0.00000000e+00 9.12717483e-01 9.82566081e-01 8.83080752e-01 0.00000000e+00 2.68576932e+00 2.77854170e+00 2.21554340e+00 0.00000000e+00 5.89468694e+00 5.89832028e+00 4.28211241e+00 
        </DataArray>
        <DataArray type="Float64" Name="p">
          -6.48094596e+03 -6.45027949e+03 -6.41961302e+03 -6.38894655e+03 -6.47202207e+03 -6.43981523e+03 -6.40760839e+03 -6.37540155e+03 -6.46309818e+03 -6.42935097e+03 -6.39560375e+03 -6.36185654e+03 -6.45417429e+03 -6.41888670e+03 -6.38359912e+03 -6.34831154e+03 
        </DataArray>
      </PointData>
    </Piece>
    <Piece NumberOfPoints="16" NumberOfCells="9">
      <Points>
        <DataArray type="Float64" NumberOfComponents="3" format="ascii">
          2.50000000e+00 1.00000000e+00 0.00000000e+00 
3.33333325e+00 1.00000000e+00 0.00000000e+00 
4.16666651e+00 1.00000000e+00 0.00000000e+00 
5.00000000e+00 1.00000000e+00 0.00000000e+00 
2.50000000e+00 1.33333337e+00 0.00000000e+00 
3.33333325e+00 1.33333337e+00 0.00000000e+00 
4.16666651e+00 1.33333337e+00 0.00000000e+00 
5.00000000e+00 1.33333337e+00 0.00000000e+00 
2.50000000e+00 1.66666663e+00 0.00000000e+00 
3.33333325e+00 1.66666663e+00 0.00000000e+00 
4.16666651e+00 1.66666663e+00 0.00000000e+00 
5.00000000e+00 1.66666663e+00 0.00000000e+00 
2.50000000e+00 2.00000000e+00 0.00000000e+00 
3.33333325e+00 2.00000000e+00 0.00000000e+00 
4.16666651e+00 2.00000000e+00 0.00000000e+00 
5.00000000e+00 2.00000000e+00 0.00000000e+00 

        </DataArray>
      </Points>
      <Cells>
        <DataArray type="Int32" Name="connectivity" format="ascii">
0 1 5 4
4 5 9 8
8 9 13 12
1 2 6 5
5 6 10 9
9 10 14 13
2 3 7 6
6 7 11 10
10 11 15 14

        </DataArray>
        <DataArray type="Int32" Name="offsets" format="ascii">
4 8 12 16 20 24 28 32 36 
        </DataArray>
        <DataArray type="UInt8" Name="types" format="ascii">
9 9 9 9 9 9 9 9 9 
        </DataArray>
      </Cells>
      <PointData>
        <DataArray type="Float64" Name="u">
          0.00000000e+00 -6.75145390e+00 -1.21618715e+01 -1.97824419e+01 0.00000000e+00 -7.33195839e+00 -1.23336670e+01 -1.84800961e+01 0.00000000e+00 -6.83694295e+00 -9.73738800e+00 -1.22575311e+01 0.00000000e+00 -4.79786365e+00 -3.69037723e+00 -4.26188912e-01 
        </DataArray>
        <DataArray type="Float64" Name="v">
          0.00000000e+00 5.89468694e+00 5.89832028e+00 4.28211241e+00 0.00000000e+00 9.70662023e+00 8.97514247e+00 5.66008776e+00 0.00000000e+00 1.25598516e+01 1.09129567e+01 5.71118032e+00 0.00000000e+00 1.53474180e+01 1.15883939e+01 3.82230336e+00 
        </DataArray>
        <DataArray type="Float64" Name="p">
          -6.44232685e+03 -6.41556548e+03 -6.38880410e+03 -6.36204272e+03 -6.50848422e+03 -6.48027544e+03 -6.45206666e+03 -6.42385789e+03 -6.57464159e+03 -6.54498541e+03 -6.51532923e+03 -6.48567305e+03 -6.64079896e+03 -6.60969537e+03 -6.57859179e+03 -6.54748821e+03 
        </DataArray>
      </PointData>
    </Piece>
    <Piece NumberOfPoints="16" NumberOfCells="9">
      <Points>
        <DataArray type="Float64" NumberOfComponents="3" format="ascii">
          2.50000000e+00 2.00000000e+00 0.00000000e+00 
3.33333325e+00 2.00000000e+00 0.00000000e+00 
4.16666651e+00 2.00000000e+00 0.00000000e+00 
5.00000000e+00 2.00000000e+00 0.00000000e+00 
2.50000000e+00 2.33333325e+00 0.00000000e+00 
3.33333325e+00 2.33333325e+00 0.00000000e+00 
4.16666651e+00 2.33333325e+00 0.00000000e+00 
5.00000000e+00 2.33333325e+00 0.00000000e+00 
2.50000000e+00 2.66666675e+00 0.00000000e+00 
3.33333325e+00 2.66666675e+00 0.00000000e+00 
4.16666651e+00 2.66666675e+00 0.00000000e+00 
5.00000000e+00 2.66666675e+00 0.00000000e+00 
2.50000000e+00 3.00000000e+00 0.00000000e+00 
3.33333325e+00 3.00000000e+00 0.00000000e+00 
4.16666651e+00 3.00000000e+00 0.00000000e+00 
5.00000000e+00 3.00000000e+00 0.00000000e+00 

        </DataArray>
      </Points>
      <Cells>
        <DataArray type="Int32" Name="connectivity" format="ascii">
0 1 5 4
4 5 9 8
8 9 13 12
1 2 6 5
5 6 10 9
9 10 14 13
2 3 7 6
6 7 11 10
10 11 15 14

        </DataArray>
        <DataArray type="Int32" Name="offsets" format="ascii">
4 8 12 16 20 24 28 32 36 
        </DataArray>
        <DataArray type="UInt8" Name="types" format="ascii">
9 9 9 9 9 9 9 9 9 
        </DataArray>
      </Cells>
      <PointData>
        <DataArray type="Float64" Name="u">
          0.00000000e+00 -4.79786365e+00 -3.69037723e+00 -4.26188912e-01 0.00000000e+00 -6.97018345e-02 6.35404997e+00 1.97579885e+01 0.00000000e+00 1.38892231e+01 2.62133116e+01 4.83470383e+01 0.00000000e+00 5.29670374e+01 6.49137503e+01 8.88361690e+01 
        </DataArray>
        <DataArray type="Float64" Name="v">
          0.00000000e+00 1.53474180e+01 1.15883939e+01 3.82230336e+00 0.00000000e+00 1.64983891e+01 8.23846058e+00 -1.63323523e+00 0.00000000e+00 1.22479534e+01 3.83226536e+00 -6.29152868e+00 0.00000000e+00 -1.03843667e+00 -6.08920468e+00 -1.10773611e+01 
        </DataArray>
        <DataArray type="Float64" Name="p">
          -6.60041152e+03 -6.62024554e+03 -6.64007956e+03 -6.65991358e+03 -6.87096417e+03 -6.74167152e+03 -6.61237887e+03 -6.48308622e+03 -7.14151683e+03 -6.86309750e+03 -6.58467818e+03 -6.30625886e+03 -7.41206948e+03 -6.98452348e+03 -6.55697749e+03 -6.12943149e+03 
        </DataArray>
      </PointData>
    </Piece>
    <Piece NumberOfPoints="16" NumberOfCells="9">
      <Points>
        <DataArray type="Float64" NumberOfComponents="3" format="ascii">
          2.50000000e+00 3.00000000e+00 0.00000000e+00 
3.33333325e+00 3.00000000e+00 0.00000000e+00 
4.16666651e+00 3.00000000e+00 0.00000000e+00 
5.00000000e+00 3.00000000e+00 0.00000000e+00 
2.50000000e+00 3.33333325e+00 0.00000000e+00 
3.33333325e+00 3.33333325e+00 0.00000000e+00 
4.16666651e+00 3.33333325e+00 0.00000000e+00 
5.00000000e+00 3.33333325e+00 0.00000000e+00 
2.50000000e+00 3.66666675e+00 0.00000000e+00 
3.33333325e+00 3.66666675e+00 0.00000000e+00 
4.16666651e+00 3.66666675e+00 0.00000000e+00 
5.00000000e+00 3.66666675e+00 0.00000000e+00 
2.50000000e+00 4.00000000e+00 0.00000000e+00 
3.33333325e+00 4.00000000e+00 0.00000000e+00 
4.16666651e+00 4.00000000e+00 0.00000000e+00 
5.00000000e+00 4.00000000e+00 0.00000000e+00 

        </DataArray>
      </Points>
      <Cells>
        <DataArray type="Int32" Name="connectivity" format="ascii">
0 1 5 4
4 5 9 8
8 9 13 12
1 2 6 5
5 6 10 9
9 10 14 13
2 3 7 6
6 7 11 10
10 11 15 14

        </DataArray>
        <DataArray type="Int32" Name="offsets" format="ascii">
4 8 12 16 20 24 28 32 36 
        </DataArray>
        <DataArray type="UInt8" Name="types" format="ascii">
9 9 9 9 9 9 9 9 9 
        </DataArray>
      </Cells>
      <PointData>
        <DataArray type="Float64" Name="u">
          0.00000000e+00 5.29670374e+01 6.49137503e+01 8.88361690e+01 1.00708882e+02 1.08393421e+02 1.19802940e+02 1.31637629e+02 1.63755619e+02 1.63617724e+02 1.69652279e+02 1.72765399e+02 2.04458045e+02 2.00052536e+02 2.03467029e+02 1.99580636e+02 
        </DataArray>
        <DataArray type="Float64" Name="v">
          0.00000000e+00 -1.03843667e+00 -6.08920468e+00 -1.10773611e+01 -4.26061823e+00 -1.25503697e+01 -1.42370787e+01 -1.38602913e+01 -4.21843742e+00 -1.26274163e+01 -1.58534712e+01 -1.59805803e+01 -6.61285336e+00 -1.29961849e+01 -1.64406140e+01 -1.90467704e+01 
        </DataArray>
        <DataArray type="Float64" Name="p">
          -7.56277305e+03 -7.04404326e+03 -6.52531347e+03 -6.00658367e+03 -6.94838907e+03 -6.67922405e+03 -6.41005903e+03 -6.14089402e+03 -6.33400510e+03 -6.31440485e+03 -6.29480460e+03 -6.27520436e+03 -5.71962112e+03 -5.94958565e+03 -6.17955017e+03 -6.40951470e+03 
        </DataArray>
      </PointData>
    </Piece>
    <Piece NumberOfPoints="16" NumberOfCells="9">
      <Points>
        <DataArray type="Float64" NumberOfComponents="3" format="ascii">
          2.50000000e+00 4.00000000e+00 0.00000000e+00 
3.33333325e+00 4.00000000e+00 0.00000000e+00 
4.16666651e+00 4.00000000e+00 0.00000000e+00 
5.00000000e+00 4.00000000e+00 0.00000000e+00 
2.50000000e+00 4.33333349e+00 0.00000000e+00 
3.33333325e+00 4.33333349e+00 0.00000000e+00 
4.16666651e+00 4.33333349e+00 0.00000000e+00 
5.00000000e+00 4.33333349e+00 0.00000000e+00 
2.50000000e+00 4.66666651e+00 0.00000000e+00 
3.33333325e+00 4.66666651e+00 0.00000000e+00 
4.16666651e+00 4.66666651e+00 0.00000000e+00 
5.00000000e+00 4.66666651e+00 0.00000000e+00 
2.50000000e+00 5.00000000e+00 0.00000000e+00 
3.33333325e+00 5.00000000e+00 0.00000000e+00 
4.16666651e+00 5.00000000e+00 0.00000000e+00 
5.00000000e+00 5.00000000e+00 0.00000000e+00 

        </DataArray>
      </Points>
      <Cells>
        <DataArray type="Int32" Name="connectivity" format="ascii">
0 1 5 4
4 5 9 8
8 9 13 12
1 2 6 5
5 6 10 9
9 10 14 13
2 3 7 6
6 7 11 10
10 11 15 14

        </DataArray>
        <DataArray type="Int32" Name="offsets" format="ascii">
4 8 12 16 20 24 28 32 36 
        </DataArray>
        <DataArray type="UInt8" Name="types" format="ascii">
9 9 9 9 9 9 9 9 9 
        </DataArray>
      </Cells>
      <PointData>
        <DataArray type="Float64" Name="u">
          2.04458045e+02 2.00052536e+02 2.03467029e+02 1.99580636e+02 2.22763698e+02 2.16585413e+02 2.15628878e+02 2.08355304e+02 2.19019963e+02 2.11127221e+02 2.07217111e+02 1.96777620e+02 1.93637213e+02 1.85169470e+02 1.79373327e+02 1.67477441e+02 
        </DataArray>
        <DataArray type="Float64" Name="v">
          -6.61285336e+00 -1.29961849e+01 -1.64406140e+01 -1.90467704e+01 -6.54045091e+00 -1.01430302e+01 -1.44104437e+01 -1.84730803e+01 -6.60644287e+00 -9.53354035e+00 -1.24425958e+01 -1.61798385e+01 -5.26048330e+00 -5.01344968e+00 -8.21078687e+00 -1.26410695e+01 
        </DataArray>
        <DataArray type="Float64" Name="p">
          -5.55508083e+03 -5.82453562e+03 -6.09399041e+03 -6.36344519e+03 -5.27309377e+03 -5.50368162e+03 -5.73426946e+03 -5.96485731e+03 -4.99110671e+03 -5.18282761e+03 -5.37454852e+03 -5.56626942e+03 -4.70911965e+03 -4.86197361e+03 -5.01482758e+03 -5.16768154e+03 
        </DataArray>
      </PointData>
    </Piece>
    <Piece NumberOfPoints="16" NumberOfCells="9">
      <Points>
        <DataArray type="Float64" NumberOfComponents="3" format="ascii">
          2.50000000e+00 5.00000000e+00 0.00000000e+00 
3.33333325e+00 5.00000000e+00 0.00000000e+00 
4.16666651e+00 5.00000000e+00 0.00000000e+00 
5.00000000e+00 5.00000000e+00 0.00000000e+00 
2.50000000e+00 5.33333349e+00 0.00000000e+00 
3.33333325e+00 5.33333349e+00 0.00000000e+00 
4.16666651e+00 5.33333349e+00 0.00000000e+00 
5.00000000e+00 5.33333349e+00 0.00000000e+00 
2.50000000e+00 5.66666651e+00 0.00000000e+00 
3.33333325e+00 5.66666651e+00 0.00000000e+00 
4.16666651e+00 5.66666651e+00 0.00000000e+00 
5.00000000e+00 5.66666651e+00 0.00000000e+00 
2.50000000e+00 6.00000000e+00 0.00000000e+00 
3.33333325e+00 6.00000000e+00 0.00000000e+00 
4.16666651e+00 6.00000000e+00 0.00000000e+00 
5.00000000e+00 6.00000000e+00 0.00000000e+00 

        </DataArray>
      </Points>
      <Cells>
        <DataArray type="Int32" Name="connectivity" format="ascii">
0 1 5 4
4 5 9 8
8 9 13 12
1 2 6 5
5 6 10 9
9 10 14 13
2 3 7 6
6 7 11 10
10 11 15 14

        </DataArray>
        <DataArray type="Int32" Name="offsets" format="ascii">
4 8 12 16 20 24 28 32 36 
        </DataArray>
        <DataArray type="UInt8" Name="types" format="ascii">
9 9 9 9 9 9 9 9 9 
        </DataArray>
      </Cells>
      <PointData>
        <DataArray type="Float64" Name="u">
          1.93637213e+02 1.85169470e+02 1.79373327e+02 1.67477441e+02 1.47631057e+02 1.39789829e+02 1.33610725e+02 1.24418498e+02 8.07239412e+01 8.20285545e+01 7.98383462e+01 7.87525017e+01 0.00000000e+00 3.51603174e+01 3.52282462e+01 4.52259965e+01 
        </DataArray>
        <DataArray type="Float64" Name="v">
          -5.26048330e+00 -5.01344968e+00 -8.21078687e+00 -1.26410695e+01 -3.08225044e+00 -7.74478543e-01 -2.98093566e+00 -8.08160227e+00 -1.58327184e+00 -5.62712766e-01 -3.86587908e+00 -6.94383209e+00 0.00000000e+00 -6.15259441e+00 -4.54619024e+00 -2.88360026e+00 
        </DataArray>
        <DataArray type="Float64" Name="p">
          -4.80005503e+03 -4.87102078e+03 -4.94198653e+03 -5.01295229e+03 -5.01887423e+03 -4.93213999e+03 -4.84540576e+03 -4.75867152e+03 -5.23769343e+03 -4.99325921e+03 -4.74882498e+03 -4.50439075e+03 -5.45651264e+03 -5.05437842e+03 -4.65224420e+03 -4.25010998e+03 
        </DataArray>
      </PointData>
    </Piece>
    <Piece NumberOfPoints="16" NumberOfCells="9">
      <Points>
        <DataArray type="Float64" NumberOfComponents="3" format="ascii">
          2.50000000e+00 6.00000000e+00 0.00000000e+00 
3.33333325e+00 6.00000000e+00 0.00000000e+00 
4.16666651e+00 6.00000000e+00 0.00000000e+00 
5.00000000e+00 6.00000000e+00 0.00000000e+00 
2.50000000e+00 6.33333349e+00 0.00000000e+00 
3.33333325e+00 6.33333349e+00 0.00000000e+00 
4.16666651e+00 6.33333349e+00 0.00000000e+00 
5.00000000e+00 6.33333349e+00 0.00000000e+00 
2.50000000e+00 6.66666651e+00 0.00000000e+00 
3.33333325e+00 6.66666651e+00 0.00000000e+00 
4.16666651e+00 6.66666651e+00 0.00000000e+00 
5.00000000e+00 6.66666651e+00 0.00000000e+00 
2.50000000e+00 7.00000000e+00 0.00000000e+00 
3.33333325e+00 7.00000000e+00 0.00000000e+00 
4.16666651e+00 7.00000000e+00 0.00000000e+00 
5.00000000e+00 7.00000000e+00 0.00000000e+00 

        </DataArray>
      </Points>
      <Cells>
        <DataArray type="Int32" Name="connectivity" format="ascii">
0 1 5 4
4 5 9 8
8 9 13 12
1 2 6 5
5 6 10 9
9 10 14 13
2 3 7 6
6 7 11 10
10 11 15 14

        </DataArray>
        <DataArray type="Int32" Name="offsets" format="ascii">
4 8 12 16 20 24 28 32 36 
        </DataArray>
        <DataArray type="UInt8" Name="types" format="ascii">
9 9 9 9 9 9 9 9 9 
        </DataArray>
      </Cells>
      <PointData>
        <DataArray type="Float64" Name="u">
          0.00000000e+00 3.51603174e+01 3.52282462e+01 4.52259965e+01 0.00000000e+00 7.03272953e+00 1.04377177e+01 1.83143221e+01 0.00000000e+00 -2.42550993e+00 -1.57621320e+00 1.29226512e+00 0.00000000e+00 -5.35151123e+00 -7.21413642e+00 -9.19892958e+00 
        </DataArray>
        <DataArray type="Float64" Name="v">
          0.00000000e+00 -6.15259441e+00 -4.54619024e+00 -2.88360026e+00 0.00000000e+00 -1.35075129e+01 -8.44451434e+00 -3.11682291e+00 0.00000000e+00 -1.49397148e+01 -9.23370098e+00 -4.03285606e+00 0.00000000e+00 -1.28453060e+01 -9.71011023e+00 -5.25243708e+00 
        </DataArray>
        <DataArray type="Float64" Name="p">
          -5.42276385e+03 -5.10732315e+03 -4.79188244e+03 -4.47644174e+03 -5.21178420e+03 -4.99662815e+03 -4.78147210e+03 -4.56631605e+03 -5.00080455e+03 -4.88593315e+03 -4.77106176e+03 -4.65619036e+03 -4.78982490e+03 -4.77523816e+03 -4.76065141e+03 -4.74606467e+03 
        </DataArray>
      </PointData>
    </Piece>
    <Piece NumberOfPoints="16" NumberOfCells="9">
      <Points>
        <DataArray type="Float64" NumberOfComponents="3" format="ascii">
          2.50000000e+00 7.00000000e+00 0.00000000e+00 
3.33333325e+00 7.00000000e+00 0.00000000e+00 
4.16666651e+00 7.00000000e+00 0.00000000e+00 
5.00000000e+00 7.00000000e+00 0.00000000e+00 
2.50000000e+00 7.33333349e+00 0.00000000e+00 
3.33333325e+00 7.33333349e+00 0.00000000e+00 
4.16666651e+00 7.33333349e+00 0.00000000e+00 
5.00000000e+00 7.33333349e+00 0.00000000e+00 
2.50000000e+00 7.66666651e+00 0.00000000e+00 
3.33333325e+00 7.66666651e+00 0.00000000e+00 
4.16666651e+00 7.66666651e+00 0.00000000e+00 
5.00000000e+00 7.66666651e+00 0.00000000e+00 
2.50000000e+00 8.00000000e+00 0.00000000e+00 
3.33333325e+00 8.00000000e+00 0.00000000e+00 
4.16666651e+00 8.00000000e+00 0.00000000e+00 
5.00000000e+00 8.00000000e+00 0.00000000e+00 

        </DataArray>
      </Points>
      <Cells>
        <DataArray type="Int32" Name="connectivity" format="ascii">
0 1 5 4
4 5 9 8
8 9 13 12
1 2 6 5
5 6 10 9
9 10 14 13
2 3 7 6
6 7 11 10
10 11 15 14

        </DataArray>
        <DataArray type="Int32" Name="offsets" format="ascii">
4 8 12 16 20 24 28 32 36 
        </DataArray>
        <DataArray type="UInt8" Name="types" format="ascii">
9 9 9 9 9 9 9 9 9 
        </DataArray>
      </Cells>
      <PointData>
        <DataArray type="Float64" Name="u">
          0.00000000e+00 -5.35151123e+00 -7.21413642e+00 -9.19892958e+00 0.00000000e+00 -6.19915898e+00 -9.93464998e+00 -1.41354905e+01 0.00000000e+00 -5.95124321e+00 -1.03923495e+01 -1.56977166e+01 0.00000000e+00 -5.06990076e+00 -9.25686489e+00 -1.46251357e+01 
        </DataArray>
        <DataArray type="Float64" Name="v">
          0.00000000e+00 -1.28453060e+01 -9.71011023e+00 -5.25243708e+00 0.00000000e+00 -9.86309443e+00 -8.15420261e+00 -4.95889697e+00 0.00000000e+00 -7.33635770e+00 -6.34106160e+00 -4.08683738e+00 0.00000000e+00 -4.27976111e+00 -4.01082329e+00 -2.71745782e+00 
        </DataArray>
        <DataArray type="Float64" Name="p">
          -4.81007871e+03 -4.76723331e+03 -4.72438791e+03 -4.68154251e+03 -4.75480026e+03 -4.72194843e+03 -4.68909659e+03 -4.65624476e+03 -4.69952181e+03 -4.67666354e+03 -4.65380527e+03 -4.63094700e+03 -4.64424335e+03 -4.63137865e+03 -4.61851395e+03 -4.60564925e+03 
        </DataArray>
      </PointData>
    </Piece>
    <Piece NumberOfPoints="16" NumberOfCells="9">
      <Points>
        <DataArray type="Float64" NumberOfComponents="3" format="ascii">
          2.50000000e+00 8.00000000e+00 0.00000000e+00 
3.33333325e+00 8.00000000e+00 0.00000000e+00 
4.16666651e+00 8.00000000e+00 0.00000000e+00 
5.00000000e+00 8.00000000e+00 0.00000000e+00 
2.50000000e+00 8.33333302e+00 0.00000000e+00 
3.33333325e+00 8.33333302e+00 0.00000000e+00 
4.16666651e+00 8.33333302e+00 0.00000000e+00 
5.00000000e+00 8.33333302e+00 0.00000000e+00 
2.50000000e+00 8.66666698e+00 0.00000000e+00 
3.33333325e+00 8.66666698e+00 0.00000000e+00 
4.16666651e+00 8.66666698e+00 0.00000000e+00 
5.00000000e+00 8.66666698e+00 0.00000000e+00 
2.50000000e+00 9.00000000e+00 0.00000000e+00 
3.33333325e+00 9.00000000e+00 0.00000000e+00 
4.16666651e+00 9.00000000e+00 0.00000000e+00 
5.00000000e+00 9.00000000e+00 0.00000000e+00 

        </DataArray>
      </Points>
      <Cells>
        <DataArray type="Int32" Name="connectivity" format="ascii">
0 1 5 4
4 5 9 8
8 9 13 12
1 2 6 5
5 6 10 9
9 10 14 13
2 3 7 6
6 7 11 10
10 11 15 14

        </DataArray>
        <DataArray type="Int32" Name="offsets" format="ascii">
4 8 12 16 20 24 28 32 36 
        </DataArray>
        <DataArray type="UInt8" Name="types" format="ascii">
9 9 9 9 9 9 9 9 9 
        </DataArray>
      </Cells>
      <PointData>
        <DataArray type="Float64" Name="u">
          0.00000000e+00 -5.06990076e+00 -9.25686489e+00 -1.46251357e+01 0.00000000e+00 -3.76899270e+00 -6.94807732e+00 -1.15222017e+01 0.00000000e+00 -2.07494016e+00 -3.74706123e+00 -6.59376222e+00 0.00000000e+00 0.00000000e+00 0.00000000e+00 0.00000000e+00 
        </DataArray>
        <DataArray type="Float64" Name="v">
          0.00000000e+00 -4.27976111e+00 -4.01082329e+00 -2.71745782e+00 0.00000000e+00 -1.91290627e+00 -1.92551218e+00 -1.28880611e+00 0.00000000e+00 -6.19570248e-01 -6.76211897e-01 -4.46448120e-01 0.00000000e+00 0.00000000e+00 0.00000000e+00 0.00000000e+00 
        </DataArray>
        <DataArray type="Float64" Name="p">
          -4.65574480e+03 -4.63780336e+03 -4.61986192e+03 -4.60192048e+03 -4.66422584e+03 -4.64633945e+03 -4.62845307e+03 -4.61056668e+03 -4.67270687e+03 -4.65487554e+03 -4.63704422e+03 -4.61921289e+03 -4.68118791e+03 -4.66341164e+03 -4.64563537e+03 -4.62785909e+03 
        </DataArray>
      </PointData>
    </Piece>
    <Piece NumberOfPoints="16" NumberOfCells="9">
      <Points>
        <DataArray type="Float64" NumberOfComponents="3" format="ascii">
          5.00000000e+00 0.00000000e+00 0.00000000e+00 
5.83333349e+00 0.00000000e+00 0.00000000e+00 
6.66666651e+00 0.00000000e+00 0.00000000e+00 
7.50000000e+00 0.00000000e+00 0.00000000e+00 
5.00000000e+00 3.33333343e-01 0.00000000e+00 
5.83333349e+00 3.33333343e-01 0.00000000e+00 
6.66666651e+00 3.33333343e-01 0.00000000e+00 
7.50000000e+00 3.33333343e-01 0.00000000e+00 
5.00000000e+00 6.66666687e-01 0.00000000e+00 
5.83333349e+00 6.66666687e-01 0.00000000e+00 
6.66666651e+00 6.66666687e-01 0.00000000e+00 
7.50000000e+00 6.66666687e-01 0.00000000e+00 
5.00000000e+00 1.00000000e+00 0.00000000e+00 
5.83333349e+00 1.00000000e+00 0.00000000e+00 
6.66666651e+00 1.00000000e+00 0.00000000e+00 
7.50000000e+00 1.00000000e+00 0.00000000e+00 

        </DataArray>
      </Points>
      <Cells>
        <DataArray type="Int32" Name="connectivity" format="ascii">
0 1 5 4
4 5 9 8
8 9 13 12
1 2 6 5
5 6 10 9
9 10 14 13
2 3 7 6
6 7 11 10
10 11 15 14

        </DataArray>
        <DataArray type="Int32" Name="offsets" format="ascii">
4 8 12 16 20 24 28 32 36 
        </DataArray>
        <DataArray type="UInt8" Name="types" format="ascii">
9 9 9 9 9 9 9 9 9 
        </DataArray>
      </Cells>
      <PointData>
        <DataArray type="Float64" Name="u">