<?xml version="1.0"?>
<VTKFile type="UnstructuredGrid" version="0.1" byte_order="LittleEndian">
  <UnstructuredGrid>
    <Piece NumberOfPoints="16" NumberOfCells="9">
      <Points>
        <DataArray type="Float64" NumberOfComponents="3" format="ascii">
          0.00000000e+00 3.00000000e+00 0.00000000e+00 
8.33333313e-01 3.00000000e+00 0.00000000e+00 
1.66666663e+00 3.00000000e+00 0.00000000e+00 
2.50000000e+00 3.00000000e+00 0.00000000e+00 
0.00000000e+00 3.33333325e+00 0.00000000e+00 
8.33333313e-01 3.33333325e+00 0.00000000e+00 
1.66666663e+00 3.33333325e+00 0.00000000e+00 
2.50000000e+00 3.33333325e+00 0.00000000e+00 
0.00000000e+00 3.66666675e+00 0.00000000e+00 
8.33333313e-01 3.66666675e+00 0.00000000e+00 
1.66666663e+00 3.66666675e+00 0.00000000e+00 
2.50000000e+00 3.66666675e+00 0.00000000e+00 
0.00000000e+00 4.00000000e+00 0.00000000e+00 
8.33333313e-01 4.00000000e+00 0.00000000e+00 
1.66666663e+00 4.00000000e+00 0.00000000e+00 
2.50000000e+00 4.00000000e+00 0.00000000e+00 

        </DataArray>
      </Points>
      <Cells>
        <DataArray type="Int32" Name="connectivity" format="ascii">
0 1 5 4
4 5 9 8
8 9 13 12
1 2 6 5
5 6 10 9
9 10 14 13
2 3 7 6
6 7 11 10
10 11 15 14

        </DataArray>
        <DataArray type="Int32" Name="offsets" format="ascii">
4 8 12 16 20 24 28 32 36 
        </DataArray>
        <DataArray type="UInt8" Name="types" format="ascii">
9 9 9 9 9 9 9 9 9 
        </DataArray>
      </Cells>
      <PointData>
        <DataArray type="Float64" Name="u">
          0.00000000e+00 0.00000000e+00 0.00000000e+00 0.00000000e+00 8.88888889e+01 8.78509086e+01 8.81579297e+01 8.51041559e+01 1.55555556e+02 1.53763395e+02 1.54707300e+02 1.50628165e+02 2.00000000e+02 1.97920907e+02 1.99150415e+02 1.95288761e+02 
        </DataArray>
        <DataArray type="Float64" Name="v">
          0.00000000e+00 0.00000000e+00 0.00000000e+00 0.00000000e+00 0.00000000e+00 2.84472242e-01 9.36390430e-01 1.10958510e-01 0.00000000e+00 3.17170297e-01 1.05674296e+00 1.50418827e+00 0.00000000e+00 9.42477957e-01 2.17865187e+00 2.97565389e+00 
        </DataArray>
        <DataArray type="Float64" Name="p">
          -1.28607301e+03 -2.60728250e+03 -3.92849200e+03 -5.24970149e+03 -1.31274499e+03 -2.63202399e+03 -3.95130298e+03 -5.27058198e+03 -1.33941698e+03 -2.65676547e+03 -3.97411396e+03 -5.29146246e+03 -1.36608896e+03 -2.68150695e+03 -3.99692495e+03 -5.31234294e+03 
        </DataArray>
      </PointData>
    </Piece>
    <Piece NumberOfPoints="16" NumberOfCells="9">
      <Points>
        <DataArray type="Float64" NumberOfComponents="3" format="ascii">
          0.00000000e+00 4.00000000e+00 0.00000000e+00 
8.33333313e-01 4.00000000e+00 0.00000000e+00 
1.66666663e+00 4.00000000e+00 0.00000000e+00 
2.50000000e+00 4.00000000e+00 0.00000000e+00 
0.00000000e+00 4.33333349e+00 0.00000000e+00 
8.33333313e-01 4.33333349e+00 0.00000000e+00 
1.66666663e+00 4.33333349e+00 0.00000000e+00 
2.50000000e+00 4.33333349e+00 0.00000000e+00 
0.00000000e+00 4.66666651e+00 0.00000000e+00 
8.33333313e-01 4.66666651e+00 0.00000000e+00 
1.66666663e+00 4.66666651e+00 0.00000000e+00 
2.50000000e+00 4.66666651e+00 0.00000000e+00 
0.00000000e+00 5.00000000e+00 0.00000000e+00 
8.33333313e-01 5.00000000e+00 0.00000000e+00 
1.66666663e+00 5.00000000e+00 0.00000000e+00 
2.50000000e+00 5.00000000e+00 0.00000000e+00 

        </DataArray>
      </Points>
      <Cells>
        <DataArray type="Int32" Name="connectivity" format="ascii">
0 1 5 4
4 5 9 8
8 9 13 12
1 2 6 5
5 6 10 9
9 10 14 13
2 3 7 6
6 7 11 10
10 11 15 14

        </DataArray>
        <DataArray type="Int32" Name="offsets" format="ascii">
4 8 12 16 20 24 28 32 36 
        </DataArray>
        <DataArray type="UInt8" Name="types" format="ascii">
9 9 9 9 9 9 9 9 9 
        </DataArray>
      </Cells>
      <PointData>
        <DataArray type="Float64" Name="u">
          2.00000000e+02 1.97920907e+02 1.99150415e+02 1.95288761e+02 2.22222222e+02 2.20603474e+02 2.21728236e+02 2.19355917e+02 2.22222222e+02 2.21383629e+02 2.22610580e+02 2.21790949e+02 2.00000000e+02 2.00095857e+02 2.01507380e+02 2.02234119e+02 
        </DataArray>
        <DataArray type="Float64" Name="v">
          0.00000000e+00 9.42477957e-01 2.17865187e+00 2.97565389e+00 0.00000000e+00 1.49747040e+00 2.75473693e+00 4.27538242e+00 0.00000000e+00 1.51743925e+00 2.96294755e+00 4.20690204e+00 0.00000000e+00 1.54958856e+00 2.66214572e+00 4.65178311e+00 
        </DataArray>
        <DataArray type="Float64" Name="p">
          -1.35743034e+03 -2.68906237e+03 -4.02069440e+03 -5.35232643e+03 -1.48698544e+03 -2.81799881e+03 -4.14901218e+03 -5.48002555e+03 -1.61654055e+03 -2.94693526e+03 -4.27732996e+03 -5.60772467e+03 -1.74609566e+03 -3.07587170e+03 -4.40564774e+03 -5.73542378e+03 
        </DataArray>
      </PointData>
    </Piece>
    <Piece NumberOfPoints="16" NumberOfCells="9">
      <Points>
        <DataArray type="Float64" NumberOfComponents="3" format="ascii">
          0.00000000e+00 5.00000000e+00 0.00000000e+00 
8.33333313e-01 5.00000000e+00 0.00000000e+00 
1.66666663e+00 5.00000000e+00 0.00000000e+00 
2.50000000e+00 5.00000000e+00 0.00000000e+00 
0.00000000e+00 5.33333349e+00 0.00000000e+00 
8.33333313e-01 5.33333349e+00 0.00000000e+00 
1.66666663e+00 5.33333349e+00 0.00000000e+00 
2.50000000e+00 5.33333349e+00 0.00000000e+00 
0.00000000e+00 5.66666651e+00 0.00000000e+00 
8.33333313e-01 5.66666651e+00 0.00000000e+00 
1.66666663e+00 5.66666651e+00 0.00000000e+00 
2.50000000e+00 5.66666651e+00 0.00000000e+00 
0.00000000e+00 6.00000000e+00 0.00000000e+00 
8.33333313e-01 6.00000000e+00 0.00000000e+00 
1.66666663e+00 6.00000000e+00 0.00000000e+00 
2.50000000e+00 6.00000000e+00 0.00000000e+00 

        </DataArray>
      </Points>
      <Cells>
        <DataArray type="Int32" Name="connectivity" format="ascii">
0 1 5 4
4 5 9 8
8 9 13 12
1 2 6 5
5 6 10 9
9 10 14 13
2 3 7 6
6 7 11 10
10 11 15 14

        </DataArray>
        <DataArray type="Int32" Name="offsets" format="ascii">
4 8 12 16 20 24 28 32 36 
        </DataArray>
        <DataArray type="UInt8" Name="types" format="ascii">
9 9 9 9 9 9 9 9 9 
        </DataArray>
      </Cells>
      <PointData>
        <DataArray type="Float64" Name="u">
          2.00000000e+02 2.00095857e+02 2.01507380e+02 2.02234119e+02 1.55555556e+02 1.57021148e+02 1.57767640e+02 1.60974999e+02 8.88888889e+01 9.11515537e+01 9.08045010e+01 9.71305604e+01 0.00000000e+00 0.00000000e+00 0.00000000e+00 0.00000000e+00 
        </DataArray>
        <DataArray type="Float64" Name="v">
          0.00000000e+00 1.54958856e+00 2.66214572e+00 4.65178311e+00 0.00000000e+00 7.37872699e-01 1.56870336e+00 3.22914013e+00 0.00000000e+00 7.81870056e-01 1.04079327e+00 3.50567754e+00 0.00000000e+00 0.00000000e+00 0.00000000e+00 0.00000000e+00 
        </DataArray>
        <DataArray type="Float64" Name="p">
          -1.78095768e+03 -3.11066049e+03 -4.44036330e+03 -5.77006611e+03 -1.78888939e+03 -3.14188193e+03 -4.49487447e+03 -5.84786702e+03 -1.79682110e+03 -3.17310337e+03 -4.54938565e+03 -5.92566792e+03 -1.80475281e+03 -3.20432481e+03 -4.60389682e+03 -6.00346883e+03 
        </DataArray>
      </PointData>
    </Piece>
    <Piece NumberOfPoints="16" NumberOfCells="9">
      <Points>
        <DataArray type="Float64" NumberOfComponents="3" format="ascii">
          2.50000000e+00 0.00000000e+00 0.00000000e+00 
3.33333325e+00 0.00000000e+00 0.00000000e+00 
4.16666651e+00 0.00000000e+00 0.00000000e+00 
5.00000000e+00 0.00000000e+00 0.00000000e+00 
2.50000000e+00 3.33333343e-01 0.00000000e+00 
3.33333325e+00 3.33333343e-01 0.00000000e+00 
4.16666651e+00 3.33333343e-01 0.00000000e+00 
5.00000000e+00 3.33333343e-01 0.00000000e+00 
2.50000000e+00 6.66666687e-01 0.00000000e+00 
3.33333325e+00 6.66666687e-01 0.00000000e+00 
4.16666651e+00 6.66666687e-01 0.00000000e+00 
5.00000000e+00 6.66666687e-01 0.00000000e+00 
2.50000000e+00 1.00000000e+00 0.00000000e+00 
3.33333325e+00 1.00000000e+00 0.00000000e+00 
4.16666651e+00 1.00000000e+00 0.00000000e+00 
5.00000000e+00 1.00000000e+00 0.00000000e+00 

        </DataArray>
      </Points>
      <Cells>
        <DataArray type="Int32" Name="connectivity" format="ascii">
0 1 5 4
4 5 9 8
8 9 13 12
1 2 6 5
5 6 10 9
9 10 14 13
2 3 7 6
6 7 11 10
10 11 15 14

        </DataArray>
        <DataArray type="Int32" Name="offsets" format="ascii">
4 8 12 16 20 24 28 32 36 
        </DataArray>
        <DataArray type="UInt8" Name="types" format="ascii">
9 9 9 9 9 9 9 9 9 
        </DataArray>
      </Cells>
      <PointData>
        <DataArray type="Float64" Name="u">
          0.00000000e+00 0.00000000e+00 0.00000000e+00 0.00000000e+00 0.00000000e+00 -2.63619936e+00 -4.52044128e+00 -8.02463034e+00 0.00000000e+00 -4.65366564e+00 -8.18881351e+00 -1.36736780e+01 0.00000000e+00 -6.08042963e+00 -1.05927069e+01 -1.68100969e+01 
        </DataArray>
        <DataArray type="Float64" Name="v">
          0.00000000e+00 0.00000000e+00 0.00000000e+00 0.00000000e+00 0.00000000e+00 7.73797189e-01 8.31191397e-01 5.29168539e-01 0.00000000e+00 2.32910062e+00 2.31604691e+00 1.48473047e+00 0.00000000e+00 5.13792437e+00 4.75854458e+00 3.07260193e+00 
        </DataArray>
        <DataArray type="Float64" Name="p">
          -4.62957983e+03 -4.59124692e+03 -4.55291401e+03 -4.51458109e+03 -4.61718866e+03 -4.57893008e+03 -4.54067150e+03 -4.50241293e+03 -4.60479748e+03 -4.56661324e+03 -4.52842900e+03 -4.49024476e+03 -4.59240631e+03 -4.55429640e+03 -4.51618650e+03 -4.47807659e+03 
        </DataArray>
      </PointData>
    </Piece>
    <Piece NumberOfPoints="16" NumberOfCells="9">
      <Points>
        <DataArray type="Float64" NumberOfComponents="3" format="ascii">
          2.50000000e+00 1.00000000e+00 0.00000000e+00 
3.33333325e+00 1.00000000e+00 0.00000000e+00 
4.16666651e+00 1.00000000e+00 0.00000000e+00 
5.00000000e+00 1.00000000e+00 0.00000000e+00 
2.50000000e+00 1.33333337e+00 0.00000000e+00 
3.33333325e+00 1.33333337e+00 0.00000000e+00 
4.16666651e+00 1.33333337e+00 0.00000000e+00 
5.00000000e+00 1.33333337e+00 0.00000000e+00 
2.50000000e+00 1.66666663e+00 0.00000000e+00 
3.33333325e+00 1.66666663e+00 0.00000000e+00 
4.16666651e+00 1.66666663e+00 0.00000000e+00 
5.00000000e+00 1.66666663e+00 0.00000000e+00 
2.50000000e+00 2.00000000e+00 0.00000000e+00 
3.33333325e+00 2.00000000e+00 0.00000000e+00 
4.16666651e+00 2.00000000e+00 0.00000000e+00 
5.00000000e+00 2.00000000e+00 0.00000000e+00 

        </DataArray>
      </Points>
      <Cells>
        <DataArray type="Int32" Name="connectivity" format="ascii">
0 1 5 4
4 5 9 8
8 9 13 12
1 2 6 5
5 6 10 9
9 10 14 13
2 3 7 6
6 7 11 10
10 11 15 14

        </DataArray>
        <DataArray type="Int32" Name="offsets" format="ascii">
4 8 12 16 20 24 28 32 36 
        </DataArray>
        <DataArray type="UInt8" Name="types" format="ascii">
9 9 9 9 9 9 9 9 9 
        </DataArray>
      </Cells>
      <PointData>
        <DataArray type="Float64" Name="u">
          0.00000000e+00 -6.08042963e+00 -1.05927069e+01 -1.68100969e+01 0.00000000e+00 -6.91199169e+00 -1.14319763e+01 -1.72389082e+01 0.00000000e+00 -6.90129028e+00 -1.02610677e+01 -1.43393376e+01 0.00000000e+00 -5.49745222e+00 -6.37236466e+00 -7.37363777e+00 
        </DataArray>
        <DataArray type="Float64" Name="v">
          0.00000000e+00 5.13792437e+00 4.75854458e+00 3.07260193e+00 0.00000000e+00 8.62604927e+00 7.35094026e+00 4.44933605e+00 0.00000000e+00 1.14093121e+01 9.26506737e+00 5.16225537e+00 0.00000000e+00 1.44822992e+01 1.06292699e+01 4.99469018e+00 
        </DataArray>
        <DataArray type="Float64" Name="p">
          -4.57707373e+03 -4.54691804e+03 -4.51676236e+03 -4.48660668e+03 -4.66038922e+03 -4.61409884e+03 -4.56780847e+03 -4.52151809e+03 -4.74370471e+03 -4.68127964e+03 -4.61885457e+03 -4.55642950e+03 -4.82702020e+03 -4.74846044e+03 -4.66990068e+03 -4.59134092e+03 
        </DataArray>
      </PointData>
    </Piece>
    <Piece NumberOfPoints="16" NumberOfCells="9">
      <Points>
        <DataArray type="Float64" NumberOfComponents="3" format="ascii">
          2.50000000e+00 2.00000000e+00 0.00000000e+00 
3.33333325e+00 2.00000000e+00 0.00000000e+00 
4.16666651e+00 2.00000000e+00 0.00000000e+00 
5.00000000e+00 2.00000000e+00 0.00000000e+00 
2.50000000e+00 2.33333325e+00 0.00000000e+00 
3.33333325e+00 2.33333325e+00 0.00000000e+00 
4.16666651e+00 2.33333325e+00 0.00000000e+00 
5.00000000e+00 2.33333325e+00 0.00000000e+00 
2.50000000e+00 2.66666675e+00 0.00000000e+00 
3.33333325e+00 2.66666675e+00 0.00000000e+00 
4.16666651e+00 2.66666675e+00 0.00000000e+00 
5.00000000e+00 2.66666675e+00 0.00000000e+00 
2.50000000e+00 3.00000000e+00 0.00000000e+00 
3.33333325e+00 3.00000000e+00 0.00000000e+00 
4.16666651e+00 3.00000000e+00 0.00000000e+00 
5.00000000e+00 3.00000000e+00 0.00000000e+00 

        </DataArray>
      </Points>
      <Cells>
        <DataArray type="Int32" Name="connectivity" format="ascii">
0 1 5 4
4 5 9 8
8 9 13 12
1 2 6 5
5 6 10 9
9 10 14 13
2 3 7 6
6 7 11 10
10 11 15 14

        </DataArray>
        <DataArray type="Int32" Name="offsets" format="ascii">
4 8 12 16 20 24 28 32 36 
        </DataArray>
        <DataArray type="UInt8" Name="types" format="ascii">
9 9 9 9 9 9 9 9 9 
        </DataArray>
      </Cells>
      <PointData>
        <DataArray type="Float64" Name="u">
          0.00000000e+00 -5.49745222e+00 -6.37236466e+00 -7.37363777e+00 0.00000000e+00 -1.54527158e+00 9.28937936e-01 5.88177575e+00 0.00000000e+00 9.96479488e+00 1.54307876e+01 2.59952525e+01 0.00000000e+00 4.09198130e+01 4.29585623e+01 5.58097451e+01 
        </DataArray>
        <DataArray type="Float64" Name="v">
          0.00000000e+00 1.44822992e+01 1.06292699e+01 4.99469018e+00 0.00000000e+00 1.63088665e+01 9.54651102e+00 3.04017034e+00 0.00000000e+00 1.38320054e+01 7.79328108e+00 1.57041682e+00 0.00000000e+00 4.53737381e+00 2.71991529e+00 9.30653536e-01 
        </DataArray>
        <DataArray type="Float64" Name="p">
          -4.79688351e+03 -4.75806810e+03 -4.71925268e+03 -4.68043727e+03 -5.09883976e+03 -4.91277440e+03 -4.72670904e+03 -4.54064369e+03 -5.40079602e+03 -5.06748071e+03 -4.73416541e+03 -4.40085010e+03 -5.70275227e+03 -5.22218702e+03 -4.74162177e+03 -4.26105651e+03 
        </DataArray>
      </PointData>
    </Piece>
    <Piece NumberOfPoints="16" NumberOfCells="9">
      <Points>
        <DataArray type="Float64" NumberOfComponents="3" format="ascii">
          2.50000000e+00 3.00000000e+00 0.00000000e+00 
3.33333325e+00 3.00000000e+00 0.00000000e+00 
4.16666651e+00 3.00000000e+00 0.00000000e+00 
5.00000000e+00 3.00000000e+00 0.00000000e+00 
2.50000000e+00 3.33333325e+00 0.00000000e+00 
3.33333325e+00 3.33333325e+00 0.00000000e+00 
4.16666651e+00 3.33333325e+00 0.00000000e+00 
5.00000000e+00 3.33333325e+00 0.00000000e+00 
2.50000000e+00 3.66666675e+00 0.00000000e+00 
3.33333325e+00 3.66666675e+00 0.00000000e+00 
4.16666651e+00 3.66666675e+00 0.00000000e+00 
5.00000000e+00 3.66666675e+00 0.00000000e+00 
2.50000000e+00 4.00000000e+00 0.00000000e+00 
3.33333325e+00 4.00000000e+00 0.00000000e+00 
4.16666651e+00 4.00000000e+00 0.00000000e+00 
5.00000000e+00 4.00000000e+00 0.00000000e+00 

        </DataArray>
      </Points>
      <Cells>
        <DataArray type="Int32" Name="connectivity" format="ascii">
0 1 5 4
4 5 9 8
8 9 13 12
1 2 6 5
5 6 10 9
9 10 14 13
2 3 7 6
6 7 11 10
10 11 15 14

        </DataArray>
        <DataArray type="Int32" Name="offsets" format="ascii">
4 8 12 16 20 24 28 32 36 
        </DataArray>
        <DataArray type="UInt8" Name="types" format="ascii">
9 9 9 9 9 9 9 9 9 
        </DataArray>
      </Cells>
      <PointData>
        <DataArray type="Float64" Name="u">
          0.00000000e+00 4.09198130e+01 4.29585623e+01 5.58097451e+01 8.51041559e+01 8.80806701e+01 8.84760363e+01 9.01516461e+01 1.50628165e+02 1.43772386e+02 1.39715693e+02 1.33020106e+02 1.95288761e+02 1.86713983e+02 1.82267881e+02 1.71519108e+02 
        </DataArray>
        <DataArray type="Float64" Name="v">
          0.00000000e+00 4.53737381e+00 2.71991529e+00 9.30653536e-01 1.10958510e-01 -2.45436187e+00 4.96081520e-01 3.81161190e+00 1.50418827e+00 -2.47301080e+00 -6.23155553e-01 4.52455486e+00 2.97565389e+00 1.24883638e+00 3.58317242e+00 7.48748620e+00 
        </DataArray>
        <DataArray type="Float64" Name="p">
          -5.73884301e+03 -5.16701898e+03 -4.59519494e+03 -4.02337090e+03 -5.38040855e+03 -5.02558919e+03 -4.67076983e+03 -4.31595047e+03 -5.02197409e+03 -4.88415941e+03 -4.74634473e+03 -4.60853005e+03 -4.66353963e+03 -4.74272963e+03 -4.82191962e+03 -4.90110962e+03 
        </DataArray>
      </PointData>
    </Piece>
    <Piece NumberOfPoints="16" NumberOfCells="9">
      <Points>
        <DataArray type="Float64" NumberOfComponents="3" format="ascii">
          2.50000000e+00 4.00000000e+00 0.00000000e+00 
3.33333325e+00 4.00000000e+00 0.00000000e+00 
4.16666651e+00 4.00000000e+00 0.00000000e+00 
5.00000000e+00 4.00000000e+00 0.00000000e+00 
2.50000000e+00 4.33333349e+00 0.00000000e+00 
3.33333325e+00 4.33333349e+00 0.00000000e+00 
4.16666651e+00 4.33333349e+00 0.00000000e+00 
5.00000000e+00 4.33333349e+00 0.00000000e+00 
2.50000000e+00 4.66666651e+00 0.00000000e+00 
3.33333325e+00 4.66666651e+00 0.00000000e+00 
4.16666651e+00 4.66666651e+00 0.00000000e+00 
5.00000000e+00 4.66666651e+00 0.00000000e+00 
2.50000000e+00 5.00000000e+00 0.00000000e+00 
3.33333325e+00 5.00000000e+00 0.00000000e+00 
4.16666651e+00 5.00000000e+00 0.00000000e+00 
5.00000000e+00 5.00000000e+00 0.00000000e+00 

        </DataArray>
      </Points>
      <Cells>
        <DataArray type="Int32" Name="connectivity" format="ascii">
0 1 5 4
4 5 9 8
8 9 13 12
1 2 6 5
5 6 10 9
9 10 14 13
2 3 7 6
6 7 11 10
10 11 15 14

        </DataArray>
        <DataArray type="Int32" Name="offsets" format="ascii">
4 8 12 16 20 24 28 32 36 
        </DataArray>
        <DataArray type="UInt8" Name="types" format="ascii">
9 9 9 9 9 9 9 9 9 
        </DataArray>
      </Cells>
      <PointData>
        <DataArray type="Float64" Name="u">
          1.95288761e+02 1.86713983e+02 1.82267881e+02 1.71519108e+02 2.19355917e+02 2.10636623e+02 2.06965387e+02 1.96598577e+02 2.21790949e+02 2.14083033e+02 2.12361110e+02 2.03881962e+02 2.02234119e+02 1.96253004e+02 1.97711694e+02 1.91732836e+02 
        </DataArray>
        <DataArray type="Float64" Name="v">
          2.97565389e+00 1.24883638e+00 3.58317242e+00 7.48748620e+00 4.27538242e+00 5.85178822e+00 7.50054050e+00 1.01367964e+01 4.20690204e+00 6.91881216e+00 1.00570159e+01 1.26665729e+01 4.65178311e+00 1.04823416e+01 1.26292657e+01 1.34805274e+01 
        </DataArray>
        <DataArray type="Float64" Name="p">
          -4.52739965e+03 -4.70162332e+03 -4.87584699e+03 -5.05007066e+03 -4.71493323e+03 -4.91732789e+03 -5.11972255e+03 -5.32211721e+03 -4.90246680e+03 -5.13303245e+03 -5.36359810e+03 -5.59416375e+03 -5.09000038e+03 -5.34873702e+03 -5.60747366e+03 -5.86621030e+03 
        </DataArray>
      </PointData>
    </Piece>
    <Piece NumberOfPoints="16" NumberOfCells="9">
      <Points>
        <DataArray type="Float64" NumberOfComponents="3" format="ascii">
          2.50000000e+00 5.00000000e+00 0.00000000e+00 
3.33333325e+00 5.00000000e+00 0.00000000e+00 
4.16666651e+00 5.00000000e+00 0.00000000e+00 
5.00000000e+00 5.00000000e+00 0.00000000e+00 
2.50000000e+00 5.33333349e+00 0.00000000e+00 
3.33333325e+00 5.33333349e+00 0.00000000e+00 
4.16666651e+00 5.33333349e+00 0.00000000e+00 
5.00000000e+00 5.33333349e+00 0.00000000e+00 
2.50000000e+00 5.66666651e+00 0.00000000e+00 
3.33333325e+00 5.66666651e+00 0.00000000e+00 
4.16666651e+00 5.66666651e+00 0.00000000e+00 
5.00000000e+00 5.66666651e+00 0.00000000e+00 
2.50000000e+00 6.00000000e+00 0.00000000e+00 
3.33333325e+00 6.00000000e+00 0.00000000e+00 
4.16666651e+00 6.00000000e+00 0.00000000e+00 
5.00000000e+00 6.00000000e+00 0.00000000e+00 

        </DataArray>
      </Points>
      <Cells>
        <DataArray type="Int32" Name="connectivity" format="ascii">
0 1 5 4
4 5 9 8
8 9 13 12
1 2 6 5
5 6 10 9
9 10 14 13
2 3 7 6
6 7 11 10
10 11 15 14

        </DataArray>
        <DataArray type="Int32" Name="offsets" format="ascii">
4 8 12 16 20 24 28 32 36 
        </DataArray>
        <DataArray type="UInt8" Name="types" format="ascii">
9 9 9 9 9 9 9 9 9 
        </DataArray>
      </Cells>
      <PointData>
        <DataArray type="Float64" Name="u">
          2.02234119e+02 1.96253004e+02 1.97711694e+02 1.91732836e+02 1.60974999e+02 1.58630724e+02 1.62362442e+02 1.62988212e+02 9.71305604e+01 1.03992845e+02 1.13019923e+02 1.22612232e+02 0.00000000e+00 5.20469827e+01 6.16835209e+01 8.34515009e+01 
        </DataArray>
        <DataArray type="Float64" Name="v">
          4.65178311e+00 1.04823416e+01 1.26292657e+01 1.34805274e+01 3.22914013e+00 1.15403681e+01 1.34717600e+01 1.19089585e+01 3.50567754e+00 1.11312706e+01 1.15783945e+01 1.02268583e+01 0.00000000e+00 5.78091004e-01 4.86033557e+00 8.97790418e+00 
        </DataArray>
        <DataArray type="Float64" Name="p">
          -5.28245701e+03 -5.47064308e+03 -5.65882915e+03 -5.84701522e+03 -5.92042007e+03 -5.82328507e+03 -5.72615007e+03 -5.62901508e+03 -6.55838313e+03 -6.17592706e+03 -5.79347100e+03 -5.41101493e+03 -7.19634619e+03 -6.52856906e+03 -5.86079193e+03 -5.19301479e+03 
        </DataArray>
      </PointData>
    </Piece>
    <Piece NumberOfPoints="16" NumberOfCells="9">
      <Points>
        <DataArray type="Float64" NumberOfComponents="3" format="ascii">
          2.50000000e+00 6.00000000e+00 0.00000000e+00 
3.33333325e+00 6.00000000e+00 0.00000000e+00 
4.16666651e+00 6.00000000e+00 0.00000000e+00 
5.00000000e+00 6.00000000e+00 0.00000000e+00 
2.50000000e+00 6.33333349e+00 0.00000000e+00 
3.33333325e+00 6.33333349e+00 0.00000000e+00 
4.16666651e+00 6.33333349e+00 0.00000000e+00 
5.00000000e+00 6.33333349e+00 0.00000000e+00 
2.50000000e+00 6.66666651e+00 0.00000000e+00 
3.33333325e+00 6.66666651e+00 0.00000000e+00 
4.16666651e+00 6.66666651e+00 0.00000000e+00 
5.00000000e+00 6.66666651e+00 0.00000000e+00 
2.50000000e+00 7.00000000e+00 0.00000000e+00 
3.33333325e+00 7.00000000e+00 0.00000000e+00 
4.16666651e+00 7.00000000e+00 0.00000000e+00 
5.00000000e+00 7.00000000e+00 0.00000000e+00 

        </DataArray>
      </Points>
      <Cells>
        <DataArray type="Int32" Name="connectivity" format="ascii">
0 1 5 4
4 5 9 8
8 9 13 12
1 2 6 5
5 6 10 9
9 10 14 13
2 3 7 6
6 7 11 10
10 11 15 14

        </DataArray>
        <DataArray type="Int32" Name="offsets" format="ascii">
4 8 12 16 20 24 28 32 36 
        </DataArray>
        <DataArray type="UInt8" Name="types" format="ascii">
9 9 9 9 9 9 9 9 9 
        </DataArray>
      </Cells>
      <PointData>
        <DataArray type="Float64" Name="u">
          0.00000000e+00 5.20469827e+01 6.16835209e+01 8.34515009e+01 0.00000000e+00 1.47150640e+01 2.63112648e+01 4.61142320e+01 0.00000000e+00 2.38153306e-01 6.88381562e+00 1.89739502e+01 0.00000000e+00 -5.03513136e+00 -3.42133087e+00 -5.39984219e-01 
        </DataArray>
        <DataArray type="Float64" Name="v">
          0.00000000e+00 5.78091004e-01 4.86033557e+00 8.97790418e+00 0.00000000e+00 -1.26069035e+01 -4.07320959e+00 5.46072458e+00 0.00000000e+00 -1.71010089e+01 -8.39537053e+00 1.48002163e+00 0.00000000e+00 -1.60513032e+01 -1.14986556e+01 -3.32736491e+00 
        </DataArray>
        <DataArray type="Float64" Name="p">
          -7.08748299e+03 -6.51174880e+03 -5.93601461e+03 -5.36028041e+03 -6.73788179e+03 -6.34668209e+03 -5.95548239e+03 -5.56428269e+03 -6.38828058e+03 -6.18161537e+03 -5.97495017e+03 -5.76828496e+03 -6.03867938e+03 -6.01654866e+03 -5.99441795e+03 -5.97228723e+03 
        </DataArray>
      </PointData>
    </Piece>
    <Piece NumberOfPoints="16" NumberOfCells="9">
      <Points>
        <DataArray type="Float64" NumberOfComponents="3" format="ascii">
          2.50000000e+00 7.00000000e+00 0.00000000e+00 
3.33333325e+00 7.00000000e+00 0.00000000e+00 
4.16666651e+00 7.00000000e+00 0.00000000e+00 
5.00000000e+00 7.00000000e+00 0.00000000e+00 
2.50000000e+00 7.33333349e+00 0.00000000e+00 
3.33333325e+00 7.33333349e+00 0.00000000e+00 
4.16666651e+00 7.33333349e+00 0.00000000e+00 
5.00000000e+00 7.33333349e+00 0.00000000e+00 
2.50000000e+00 7.66666651e+00 0.00000000e+00 
3.33333325e+00 7.66666651e+00 0.00000000e+00 
4.16666651e+00 7.66666651e+00 0.00000000e+00 
5.00000000e+00 7.66666651e+00 0.00000000e+00 
2.50000000e+00 8.00000000e+00 0.00000000e+00 
3.33333325e+00 8.00000000e+00 0.00000000e+00 
4.16666651e+00 8.00000000e+00 0.00000000e+00 
5.00000000e+00 8.00000000e+00 0.00000000e+00 

        </DataArray>
      </Points>
      <Cells>
        <DataArray type="Int32" Name="connectivity" format="ascii">
0 1 5 4
4 5 9 8
8 9 13 12
1 2 6 5
5 6 10 9
9 10 14 13
2 3 7 6
6 7 11 10
10 11 15 14

        </DataArray>
        <DataArray type="Int32" Name="offsets" format="ascii">
4 8 12 16 20 24 28 32 36 
        </DataArray>
        <DataArray type="UInt8" Name="types" format="ascii">
9 9 9 9 9 9 9 9 9 
        </DataArray>
      </Cells>
      <PointData>
        <DataArray type="Float64" Name="u">
          0.00000000e+00 -5.03513136e+00 -3.42133087e+00 -5.39984219e-01 0.00000000e+00 -7.32087260e+00 -9.63827120e+00 -1.22324313e+01 0.00000000e+00 -7.89675636e+00 -1.23995090e+01 -1.84946777e+01 0.00000000e+00 -7.32360019e+00 -1.23826503e+01 -1.99548669e+01 
        </DataArray>
        <DataArray type="Float64" Name="v">
          0.00000000e+00 -1.60513032e+01 -1.14986556e+01 -3.32736491e+00 0.00000000e+00 -1.32098580e+01 -1.08916365e+01 -5.15900698e+00 0.00000000e+00 -1.02633946e+01 -9.02022652e+00 -5.17479050e+00 0.00000000e+00 -6.29180826e+00 -6.02483610e+00 -3.95683719e+00 
        </DataArray>
        <DataArray type="Float64" Name="p">
          -6.08406653e+03 -6.00557528e+03 -5.92708402e+03 -5.84859276e+03 -5.98980980e+03 -5.92159520e+03 -5.85338060e+03 -5.78516600e+03 -5.89555307e+03 -5.83761512e+03 -5.77967718e+03 -5.72173923e+03 -5.80129633e+03 -5.75363505e+03 -5.70597376e+03 -5.65831247e+03 
        </DataArray>
      </PointData>
    </Piece>
    <Piece NumberOfPoints="16" NumberOfCells="9">
      <Points>
        <DataArray type="Float64" NumberOfComponents="3" format="ascii">
          2.50000000e+00 8.00000000e+00 0.00000000e+00 
3.33333325e+00 8.00000000e+00 0.00000000e+00 
4.16666651e+00 8.00000000e+00 0.00000000e+00 
5.00000000e+00 8.00000000e+00 0.00000000e+00 
2.50000000e+00 8.33333302e+00 0.00000000e+00 
3.33333325e+00 8.33333302e+00 0.00000000e+00 
4.16666651e+00 8.33333302e+00 0.00000000e+00 
5.00000000e+00 8.33333302e+00 0.00000000e+00 
2.50000000e+00 8.66666698e+00 0.00000000e+00 
3.33333325e+00 8.66666698e+00 0.00000000e+00 
4.16666651e+00 8.66666698e+00 0.00000000e+00 
5.00000000e+00 8.66666698e+00 0.00000000e+00 
2.50000000e+00 9.00000000e+00 0.00000000e+00 
3.33333325e+00 9.00000000e+00 0.00000000e+00 
4.16666651e+00 9.00000000e+00 0.00000000e+00 
5.00000000e+00 9.00000000e+00 0.00000000e+00 

        </DataArray>
      </Points>
      <Cells>
        <DataArray type="Int32" Name="connectivity" format="ascii">
0 1 5 4
4 5 9 8
8 9 13 12
1 2 6 5
5 6 10 9
9 10 14 13
2 3 7 6
6 7 11 10
10 11 15 14

        </DataArray>
        <DataArray type="Int32" Name="offsets" format="ascii">
4 8 12 16 20 24 28 32 36 
        </DataArray>
        <DataArray type="UInt8" Name="types" format="ascii">
9 9 9 9 9 9 9 9 9 
        </DataArray>
      </Cells>
      <PointData>
        <DataArray type="Float64" Name="u">
          0.00000000e+00 -7.32360019e+00 -1.23826503e+01 -1.99548669e+01 0.00000000e+00 -5.81246687e+00 -9.98802679e+00 -1.71564918e+01 0.00000000e+00 -3.37579227e+00 -5.65379391e+00 -1.02808611e+01 0.00000000e+00 0.00000000e+00 0.00000000e+00 0.00000000e+00 
        </DataArray>
        <DataArray type="Float64" Name="v">
          0.00000000e+00 -6.29180826e+00 -6.02483610e+00 -3.95683719e+00 0.00000000e+00 -2.89504611e+00 -2.92888070e+00 -2.01969557e+00 0.00000000e+00 -9.95061852e-01 -1.07429029e+00 -8.02062147e-01 0.00000000e+00 0.00000000e+00 0.00000000e+00 0.00000000e+00 
        </DataArray>
        <DataArray type="Float64" Name="p">
          -5.81635935e+03 -5.75777770e+03 -5.69919604e+03 -5.64061438e+03 -5.82992701e+03 -5.77159818e+03 -5.71326935e+03 -5.65494052e+03 -5.84349467e+03 -5.78541866e+03 -5.72734266e+03 -5.66926665e+03 -5.85706233e+03 -5.79923915e+03 -5.74141597e+03 -5.68359279e+03 
        </DataArray>
      </PointData>
    </Piece>
    <Piece NumberOfPoints="16" NumberOfCells="9">
      <Points>
        <DataArray type="Float64" NumberOfComponents="3" format="ascii">
          5.00000000e+00 0.00000000e+00 0.00000000e+00 
5.83333349e+00 0.00000000e+00 0.00000000e+00 
6.66666651e+00 0.00000000e+00 0.00000000e+00 
7.50000000e+00 0.00000000e+00 0.00000000e+00 
5.00000000e+00 3.33333343e-01 0.00000000e+00 
5.83333349e+00 3.33333343e-01 0.00000000e+00 
6.66666651e+00 3.33333343e-01 0.00000000e+00 
7.50000000e+00 3.33333343e-01 0.00000000e+00 
5.00000000e+00 6.66666687e-01 0.00000000e+00 
5.83333349e+00 6.66666687e-01 0.00000000e+00 
6.66666651e+00 6.66666687e-01 0.00000000e+00 
7.50000000e+00 6.66666687e-01 0.00000000e+00 
5.00000000e+00 1.00000000e+00 0.00000000e+00 
5.83333349e+00 1.00000000e+00 0.00000000e+00 
6.66666651e+00 1.00000000e+00 0.00000000e+00 
7.50000000e+00 1.00000000e+00 0.00000000e+00 

        </DataArray>
      </Points>
      <Cells>
        <DataArray type="Int32" Name="connectivity" format="ascii">
0 1 5 4
4 5 9 8
8 9 13 12
1 2 6 5
5 6 10 9
9 10 14 13
2 3 7 6
6 7 11 10
10 11 15 14

        </DataArray>
        <DataArray type="Int32" Name="offsets" format="ascii">
4 8 12 16 20 24 28 32 36 
        </DataArray>
        <DataArray type="UInt8" Name="types" format="ascii">
9 9 9 9 9 9 9 9 9 
        </DataArray>
      </Cells>
      <PointData>
        <DataArray type="Float64" Name="u">