<?xml version="1.0"?>
<VTKFile type="UnstructuredGrid" version="0.1" byte_order="LittleEndian">
  <UnstructuredGrid>
    <Piece NumberOfPoints="16" NumberOfCells="9">
      <Points>
        <DataArray type="Float64" NumberOfComponents="3" format="ascii">
          0.00000000e+00 3.00000000e+00 0.00000000e+00 
8.33333313e-01 3.00000000e+00 0.00000000e+00 
1.66666663e+00 3.00000000e+00 0.00000000e+00 
2.50000000e+00 3.00000000e+00 0.00000000e+00 
0.00000000e+00 3.33333325e+00 0.00000000e+00 
8.33333313e-01 3.33333325e+00 0.00000000e+00 
1.66666663e+00 3.33333325e+00 0.00000000e+00 
2.50000000e+00 3.33333325e+00 0.00000000e+00 
0.00000000e+00 3.66666675e+00 0.00000000e+00 
8.33333313e-01 3.66666675e+00 0.00000000e+00 
1.66666663e+00 3.66666675e+00 0.00000000e+00 
2.50000000e+00 3.66666675e+00 0.00000000e+00 
0.00000000e+00 4.00000000e+00 0.00000000e+00 
8.33333313e-01 4.00000000e+00 0.00000000e+00 
1.66666663e+00 4.00000000e+00 0.00000000e+00 
2.50000000e+00 4.00000000e+00 0.00000000e+00 

        </DataArray>
      </Points>
      <Cells>
        <DataArray type="Int32" Name="connectivity" format="ascii">
0 1 5 4
4 5 9 8
8 9 13 12
1 2 6 5
5 6 10 9
9 10 14 13
2 3 7 6
6 7 11 10
10 11 15 14

        </DataArray>
        <DataArray type="Int32" Name="offsets" format="ascii">
4 8 12 16 20 24 28 32 36 
        </DataArray>
        <DataArray type="UInt8" Name="types" format="ascii">
9 9 9 9 9 9 9 9 9 
        </DataArray>
      </Cells>
      <PointData>
        <DataArray type="Float64" Name="u">
          0.00000000e+00 0.00000000e+00 0.00000000e+00 0.00000000e+00 8.88888889e+01 8.67304316e+01 8.71635165e+01 8.10519601e+01 1.55555556e+02 1.52895659e+02 1.53692025e+02 1.47819010e+02 2.00000000e+02 1.97550441e+02 1.98401002e+02 1.93729050e+02 
        </DataArray>
        <DataArray type="Float64" Name="v">
          0.00000000e+00 0.00000000e+00 0.00000000e+00 0.00000000e+00 0.00000000e+00 7.01566929e-01 1.63793605e+00 1.47299383e+00 0.00000000e+00 6.59736143e-01 1.79654994e+00 2.97991797e+00 0.00000000e+00 1.74541833e+00 3.61537240e+00 5.11417744e+00 
        </DataArray>
        <DataArray type="Float64" Name="p">
          -2.09886166e+03 -3.15281324e+03 -4.20676482e+03 -5.26071641e+03 -2.13614942e+03 -3.19532379e+03 -4.25449816e+03 -5.31367253e+03 -2.17343719e+03 -3.23783434e+03 -4.30223150e+03 -5.36662865e+03 -2.21072496e+03 -3.28034489e+03 -4.34996483e+03 -5.41958477e+03 
        </DataArray>
      </PointData>
    </Piece>
    <Piece NumberOfPoints="16" NumberOfCells="9">
      <Points>
        <DataArray type="Float64" NumberOfComponents="3" format="ascii">
          0.00000000e+00 4.00000000e+00 0.00000000e+00 
8.33333313e-01 4.00000000e+00 0.00000000e+00 
1.66666663e+00 4.00000000e+00 0.00000000e+00 
2.50000000e+00 4.00000000e+00 0.00000000e+00 
0.00000000e+00 4.33333349e+00 0.00000000e+00 
8.33333313e-01 4.33333349e+00 0.00000000e+00 
1.66666663e+00 4.33333349e+00 0.00000000e+00 
2.50000000e+00 4.33333349e+00 0.00000000e+00 
0.00000000e+00 4.66666651e+00 0.00000000e+00 
8.33333313e-01 4.66666651e+00 0.00000000e+00 
1.66666663e+00 4.66666651e+00 0.00000000e+00 
2.50000000e+00 4.66666651e+00 0.00000000e+00 
0.00000000e+00 5.00000000e+00 0.00000000e+00 
8.33333313e-01 5.00000000e+00 0.00000000e+00 
1.66666663e+00 5.00000000e+00 0.00000000e+00 
2.50000000e+00 5.00000000e+00 0.00000000e+00 

        </DataArray>
      </Points>
      <Cells>
        <DataArray type="Int32" Name="connectivity" format="ascii">
0 1 5 4
4 5 9 8
8 9 13 12
1 2 6 5
5 6 10 9
9 10 14 13
2 3 7 6
6 7 11 10
10 11 15 14

        </DataArray>
        <DataArray type="Int32" Name="offsets" format="ascii">
4 8 12 16 20 24 28 32 36 
        </DataArray>
        <DataArray type="UInt8" Name="types" format="ascii">
9 9 9 9 9 9 9 9 9 
        </DataArray>
      </Cells>
      <PointData>
        <DataArray type="Float64" Name="u">
          2.00000000e+02 1.97550441e+02 1.98401002e+02 1.93729050e+02 2.22222222e+02 2.20680324e+02 2.21422675e+02 2.19028384e+02 2.22222222e+02 2.21882402e+02 2.22751698e+02 2.22695739e+02 2.00000000e+02 2.00881382e+02 2.01922333e+02 2.04311185e+02 
        </DataArray>
        <DataArray type="Float64" Name="v">
          0.00000000e+00 1.74541833e+00 3.61537240e+00 5.11417744e+00 0.00000000e+00 2.40625671e+00 4.38497732e+00 6.46369024e+00 0.00000000e+00 2.40045115e+00 4.55537049e+00 6.39598454e+00 0.00000000e+00 2.26957741e+00 3.98026044e+00 6.49532708e+00 
        </DataArray>
        <DataArray type="Float64" Name="p">
          -2.21248931e+03 -3.30155125e+03 -4.39061319e+03 -5.47967513e+03 -2.42567747e+03 -3.50179504e+03 -4.57791261e+03 -5.65403017e+03 -2.63886564e+03 -3.70203883e+03 -4.76521202e+03 -5.82838521e+03 -2.85205381e+03 -3.90228263e+03 -4.95251144e+03 -6.00274025e+03 
        </DataArray>
      </PointData>
    </Piece>
    <Piece NumberOfPoints="16" NumberOfCells="9">
      <Points>
        <DataArray type="Float64" NumberOfComponents="3" format="ascii">
          0.00000000e+00 5.00000000e+00 0.00000000e+00 
8.33333313e-01 5.00000000e+00 0.00000000e+00 
1.66666663e+00 5.00000000e+00 0.00000000e+00 
2.50000000e+00 5.00000000e+00 0.00000000e+00 
0.00000000e+00 5.33333349e+00 0.00000000e+00 
8.33333313e-01 5.33333349e+00 0.00000000e+00 
1.66666663e+00 5.33333349e+00 0.00000000e+00 
2.50000000e+00 5.33333349e+00 0.00000000e+00 
0.00000000e+00 5.66666651e+00 0.00000000e+00 
8.33333313e-01 5.66666651e+00 0.00000000e+00 
1.66666663e+00 5.66666651e+00 0.00000000e+00 
2.50000000e+00 5.66666651e+00 0.00000000e+00 
0.00000000e+00 6.00000000e+00 0.00000000e+00 
8.33333313e-01 6.00000000e+00 0.00000000e+00 
1.66666663e+00 6.00000000e+00 0.00000000e+00 
2.50000000e+00 6.00000000e+00 0.00000000e+00 

        </DataArray>
      </Points>
      <Cells>
        <DataArray type="Int32" Name="connectivity" format="ascii">
0 1 5 4
4 5 9 8
8 9 13 12
1 2 6 5
5 6 10 9
9 10 14 13
2 3 7 6
6 7 11 10
10 11 15 14

        </DataArray>
        <DataArray type="Int32" Name="offsets" format="ascii">
4 8 12 16 20 24 28 32 36 
        </DataArray>
        <DataArray type="UInt8" Name="types" format="ascii">
9 9 9 9 9 9 9 9 9 
        </DataArray>
      </Cells>
      <PointData>
        <DataArray type="Float64" Name="u">
          2.00000000e+02 2.00881382e+02 2.01922333e+02 2.04311185e+02 1.55555556e+02 1.58037053e+02 1.58406444e+02 1.63588054e+02 8.88888889e+01 9.23114824e+01 9.15228505e+01 1.00456696e+02 0.00000000e+00 0.00000000e+00 0.00000000e+00 0.00000000e+00 
        </DataArray>
        <DataArray type="Float64" Name="v">
          0.00000000e+00 2.26957741e+00 3.98026044e+00 6.49532708e+00 0.00000000e+00 9.92375318e-01 2.28177459e+00 4.16478911e+00 0.00000000e+00 1.19230691e+00 1.72372913e+00 4.21723712e+00 0.00000000e+00 0.00000000e+00 0.00000000e+00 0.00000000e+00 
        </DataArray>
        <DataArray type="Float64" Name="p">
          -2.89093767e+03 -3.94277711e+03 -4.99461655e+03 -6.04645599e+03 -2.91953005e+03 -3.99256564e+03 -5.06560123e+03 -6.13863682e+03 -2.94812243e+03 -4.04235417e+03 -5.13658591e+03 -6.23081765e+03 -2.97671481e+03 -4.09214270e+03 -5.20757059e+03 -6.32299848e+03 
        </DataArray>
      </PointData>
    </Piece>
    <Piece NumberOfPoints="16" NumberOfCells="9">
      <Points>
        <DataArray type="Float64" NumberOfComponents="3" format="ascii">
          2.50000000e+00 0.00000000e+00 0.00000000e+00 
3.33333325e+00 0.00000000e+00 0.00000000e+00 
4.16666651e+00 0.00000000e+00 0.00000000e+00 
5.00000000e+00 0.00000000e+00 0.00000000e+00 
2.50000000e+00 3.33333343e-01 0.00000000e+00 
3.33333325e+00 3.33333343e-01 0.00000000e+00 
4.16666651e+00 3.33333343e-01 0.00000000e+00 
5.00000000e+00 3.33333343e-01 0.00000000e+00 
2.50000000e+00 6.66666687e-01 0.00000000e+00 
3.33333325e+00 6.66666687e-01 0.00000000e+00 
4.16666651e+00 6.66666687e-01 0.00000000e+00 
5.00000000e+00 6.66666687e-01 0.00000000e+00 
2.50000000e+00 1.00000000e+00 0.00000000e+00 
3.33333325e+00 1.00000000e+00 0.00000000e+00 
4.16666651e+00 1.00000000e+00 0.00000000e+00 
5.00000000e+00 1.00000000e+00 0.00000000e+00 

        </DataArray>
      </Points>
      <Cells>
        <DataArray type="Int32" Name="connectivity" format="ascii">
0 1 5 4
4 5 9 8
8 9 13 12
1 2 6 5
5 6 10 9
9 10 14 13
2 3 7 6
6 7 11 10
10 11 15 14

        </DataArray>
        <DataArray type="Int32" Name="offsets" format="ascii">
4 8 12 16 20 24 28 32 36 
        </DataArray>
        <DataArray type="UInt8" Name="types" format="ascii">
9 9 9 9 9 9 9 9 9 
        </DataArray>
      </Cells>
      <PointData>
        <DataArray type="Float64" Name="u">
          0.00000000e+00 0.00000000e+00 0.00000000e+00 0.00000000e+00 0.00000000e+00 -2.12275600e+00 -3.81492801e+00 -6.71783714e+00 0.00000000e+00 -3.84556344e+00 -7.05933379e+00 -1.17130219e+01 0.00000000e+00 -5.15939198e+00 -9.38157154e+00 -1.48284407e+01 
        </DataArray>
        <DataArray type="Float64" Name="v">
          0.00000000e+00 0.00000000e+00 0.00000000e+00 0.00000000e+00 0.00000000e+00 6.32773025e-01 6.89546030e-01 4.53164806e-01 0.00000000e+00 1.94928307e+00 1.95983883e+00 1.30597416e+00 0.00000000e+00 4.35556268e+00 4.07721997e+00 2.75005910e+00 
        </DataArray>
        <DataArray type="Float64" Name="p">
          -4.67220452e+03 -4.65297648e+03 -4.63374843e+03 -4.61452039e+03 -4.66339221e+03 -4.64411616e+03 -4.62484011e+03 -4.60556406e+03 -4.65457991e+03 -4.63525585e+03 -4.61593180e+03 -4.59660774e+03 -4.64576760e+03 -4.62639554e+03 -4.60702348e+03 -4.58765142e+03 
        </DataArray>
      </PointData>
    </Piece>
    <Piece NumberOfPoints="16" NumberOfCells="9">
      <Points>
        <DataArray type="Float64" NumberOfComponents="3" format="ascii">
          2.50000000e+00 1.00000000e+00 0.00000000e+00 
3.33333325e+00 1.00000000e+00 0.00000000e+00 
4.16666651e+00 1.00000000e+00 0.00000000e+00 
5.00000000e+00 1.00000000e+00 0.00000000e+00 
2.50000000e+00 1.33333337e+00 0.00000000e+00 
3.33333325e+00 1.33333337e+00 0.00000000e+00 
4.16666651e+00 1.33333337e+00 0.00000000e+00 
5.00000000e+00 1.33333337e+00 0.00000000e+00 
2.50000000e+00 1.66666663e+00 0.00000000e+00 
3.33333325e+00 1.66666663e+00 0.00000000e+00 
4.16666651e+00 1.66666663e+00 0.00000000e+00 
5.00000000e+00 1.66666663e+00 0.00000000e+00 
2.50000000e+00 2.00000000e+00 0.00000000e+00 
3.33333325e+00 2.00000000e+00 0.00000000e+00 
4.16666651e+00 2.00000000e+00 0.00000000e+00 
5.00000000e+00 2.00000000e+00 0.00000000e+00 

        </DataArray>
      </Points>
      <Cells>
        <DataArray type="Int32" Name="connectivity" format="ascii">
0 1 5 4
4 5 9 8
8 9 13 12
1 2 6 5
5 6 10 9
9 10 14 13
2 3 7 6
6 7 11 10
10 11 15 14

        </DataArray>
        <DataArray type="Int32" Name="offsets" format="ascii">
4 8 12 16 20 24 28 32 36 
        </DataArray>
        <DataArray type="UInt8" Name="types" format="ascii">
9 9 9 9 9 9 9 9 9 
        </DataArray>
      </Cells>
      <PointData>
        <DataArray type="Float64" Name="u">
          0.00000000e+00 -5.15939198e+00 -9.38157154e+00 -1.48284407e+01 0.00000000e+00 -6.03950878e+00 -1.04988121e+01 -1.58593859e+01 0.00000000e+00 -6.26867610e+00 -9.98807712e+00 -1.41985519e+01 0.00000000e+00 -5.37642213e+00 -7.17551396e+00 -9.10483965e+00 
        </DataArray>
        <DataArray type="Float64" Name="v">
          0.00000000e+00 4.35556268e+00 4.07721997e+00 2.75005910e+00 0.00000000e+00 7.45251305e+00 6.43338511e+00 4.12465274e+00 0.00000000e+00 1.00058962e+01 8.26075799e+00 4.99030645e+00 0.00000000e+00 1.30030736e+01 9.80891764e+00 5.25527081e+00 
        </DataArray>
        <DataArray type="Float64" Name="p">
          -4.63391590e+03 -4.61984865e+03 -4.60578141e+03 -4.59171416e+03 -4.69148416e+03 -4.66691024e+03 -4.64233631e+03 -4.61776239e+03 -4.74905242e+03 -4.71397182e+03 -4.67889122e+03 -4.64381062e+03 -4.80662068e+03 -4.76103341e+03 -4.71544613e+03 -4.66985885e+03 
        </DataArray>
      </PointData>
    </Piece>
    <Piece NumberOfPoints="16" NumberOfCells="9">
      <Points>
        <DataArray type="Float64" NumberOfComponents="3" format="ascii">
          2.50000000e+00 2.00000000e+00 0.00000000e+00 
3.33333325e+00 2.00000000e+00 0.00000000e+00 
4.16666651e+00 2.00000000e+00 0.00000000e+00 
5.00000000e+00 2.00000000e+00 0.00000000e+00 
2.50000000e+00 2.33333325e+00 0.00000000e+00 
3.33333325e+00 2.33333325e+00 0.00000000e+00 
4.16666651e+00 2.33333325e+00 0.00000000e+00 
5.00000000e+00 2.33333325e+00 0.00000000e+00 
2.50000000e+00 2.66666675e+00 0.00000000e+00 
3.33333325e+00 2.66666675e+00 0.00000000e+00 
4.16666651e+00 2.66666675e+00 0.00000000e+00 
5.00000000e+00 2.66666675e+00 0.00000000e+00 
2.50000000e+00 3.00000000e+00 0.00000000e+00 
3.33333325e+00 3.00000000e+00 0.00000000e+00 
4.16666651e+00 3.00000000e+00 0.00000000e+00 
5.00000000e+00 3.00000000e+00 0.00000000e+00 

        </DataArray>
      </Points>
      <Cells>
        <DataArray type="Int32" Name="connectivity" format="ascii">
0 1 5 4
4 5 9 8
8 9 13 12
1 2 6 5
5 6 10 9
9 10 14 13
2 3 7 6
6 7 11 10
10 11 15 14

        </DataArray>
        <DataArray type="Int32" Name="offsets" format="ascii">
4 8 12 16 20 24 28 32 36 
        </DataArray>
        <DataArray type="UInt8" Name="types" format="ascii">
9 9 9 9 9 9 9 9 9 
        </DataArray>
      </Cells>
      <PointData>
        <DataArray type="Float64" Name="u">
          0.00000000e+00 -5.37642213e+00 -7.17551396e+00 -9.10483965e+00 0.00000000e+00 -2.36466072e+00 -1.40257476e+00 1.60778328e+00 0.00000000e+00 7.27167423e+00 1.08187070e+01 1.88827118e+01 0.00000000e+00 3.56365373e+01 3.58293148e+01 4.60331504e+01 
        </DataArray>
        <DataArray type="Float64" Name="v">
          0.00000000e+00 1.30030736e+01 9.80891764e+00 5.25527081e+00 0.00000000e+00 1.50836099e+01 9.29287703e+00 3.98684528e+00 0.00000000e+00 1.35710560e+01 8.43446489e+00 3.03871369e+00 0.00000000e+00 6.06147510e+00 4.45238403e+00 2.78974872e+00 
        </DataArray>
        <DataArray type="Float64" Name="p">
          -4.78556117e+03 -4.76918699e+03 -4.75281282e+03 -4.73643864e+03 -5.00418546e+03 -4.88366238e+03 -4.76313929e+03 -4.64261621e+03 -5.22280975e+03 -4.99813776e+03 -4.77346577e+03 -4.54879378e+03 -5.44143404e+03 -5.11261315e+03 -4.78379225e+03 -4.45497135e+03 
        </DataArray>
      </PointData>
    </Piece>
    <Piece NumberOfPoints="16" NumberOfCells="9">
      <Points>
        <DataArray type="Float64" NumberOfComponents="3" format="ascii">
          2.50000000e+00 3.00000000e+00 0.00000000e+00 
3.33333325e+00 3.00000000e+00 0.00000000e+00 
4.16666651e+00 3.00000000e+00 0.00000000e+00 
5.00000000e+00 3.00000000e+00 0.00000000e+00 
2.50000000e+00 3.33333325e+00 0.00000000e+00 
3.33333325e+00 3.33333325e+00 0.00000000e+00 
4.16666651e+00 3.33333325e+00 0.00000000e+00 
5.00000000e+00 3.33333325e+00 0.00000000e+00 
2.50000000e+00 3.66666675e+00 0.00000000e+00 
3.33333325e+00 3.66666675e+00 0.00000000e+00 
4.16666651e+00 3.66666675e+00 0.00000000e+00 
5.00000000e+00 3.66666675e+00 0.00000000e+00 
2.50000000e+00 4.00000000e+00 0.00000000e+00 
3.33333325e+00 4.00000000e+00 0.00000000e+00 
4.16666651e+00 4.00000000e+00 0.00000000e+00 
5.00000000e+00 4.00000000e+00 0.00000000e+00 

        </DataArray>
      </Points>
      <Cells>
        <DataArray type="Int32" Name="connectivity" format="ascii">
0 1 5 4
4 5 9 8
8 9 13 12
1 2 6 5
5 6 10 9
9 10 14 13
2 3 7 6
6 7 11 10
10 11 15 14

        </DataArray>
        <DataArray type="Int32" Name="offsets" format="ascii">
4 8 12 16 20 24 28 32 36 
        </DataArray>
        <DataArray type="UInt8" Name="types" format="ascii">
9 9 9 9 9 9 9 9 9 
        </DataArray>
      </Cells>
      <PointData>
        <DataArray type="Float64" Name="u">
          0.00000000e+00 3.56365373e+01 3.58293148e+01 4.60331504e+01 8.10519601e+01 8.24949962e+01 8.04826474e+01 7.96076081e+01 1.47819010e+02 1.40039900e+02 1.33995883e+02 1.24982279e+02 1.93729050e+02 1.85219842e+02 1.79497103e+02 1.67650888e+02 
        </DataArray>
        <DataArray type="Float64" Name="v">
          0.00000000e+00 6.06147510e+00 4.45238403e+00 2.78974872e+00 1.47299383e+00 3.56382559e-01 3.65397175e+00 6.76553385e+00 2.97991797e+00 5.53408272e-01 2.75818345e+00 7.89345306e+00 5.11417744e+00 4.76127761e+00 7.91653490e+00 1.23390142e+01 
        </DataArray>
        <DataArray type="Float64" Name="p">
          -5.47543726e+03 -5.05917235e+03 -4.64290744e+03 -4.22664254e+03 -5.24634451e+03 -4.99248709e+03 -4.73862966e+03 -4.48477223e+03 -5.01725177e+03 -4.92580182e+03 -4.83435188e+03 -4.74290193e+03 -4.78815902e+03 -4.85911656e+03 -4.93007410e+03 -5.00103163e+03 
        </DataArray>
      </PointData>
    </Piece>
    <Piece NumberOfPoints="16" NumberOfCells="9">
      <Points>
        <DataArray type="Float64" NumberOfComponents="3" format="ascii">
          2.50000000e+00 4.00000000e+00 0.00000000e+00 
3.33333325e+00 4.00000000e+00 0.00000000e+00 
4.16666651e+00 4.00000000e+00 0.00000000e+00 
5.00000000e+00 4.00000000e+00 0.00000000e+00 
2.50000000e+00 4.33333349e+00 0.00000000e+00 
3.33333325e+00 4.33333349e+00 0.00000000e+00 
4.16666651e+00 4.33333349e+00 0.00000000e+00 
5.00000000e+00 4.33333349e+00 0.00000000e+00 
2.50000000e+00 4.66666651e+00 0.00000000e+00 
3.33333325e+00 4.66666651e+00 0.00000000e+00 
4.16666651e+00 4.66666651e+00 0.00000000e+00 
5.00000000e+00 4.66666651e+00 0.00000000e+00 
2.50000000e+00 5.00000000e+00 0.00000000e+00 
3.33333325e+00 5.00000000e+00 0.00000000e+00 
4.16666651e+00 5.00000000e+00 0.00000000e+00 
5.00000000e+00 5.00000000e+00 0.00000000e+00 

        </DataArray>
      </Points>
      <Cells>
        <DataArray type="Int32" Name="connectivity" format="ascii">
0 1 5 4
4 5 9 8
8 9 13 12
1 2 6 5
5 6 10 9
9 10 14 13
2 3 7 6
6 7 11 10
10 11 15 14

        </DataArray>
        <DataArray type="Int32" Name="offsets" format="ascii">
4 8 12 16 20 24 28 32 36 
        </DataArray>
        <DataArray type="UInt8" Name="types" format="ascii">
9 9 9 9 9 9 9 9 9 
        </DataArray>
      </Cells>
      <PointData>
        <DataArray type="Float64" Name="u">
          1.93729050e+02 1.85219842e+02 1.79497103e+02 1.67650888e+02 2.19028384e+02 2.11041280e+02 2.07132728e+02 1.96657517e+02 2.22695739e+02 2.16369325e+02 2.15358610e+02 2.07957900e+02 2.04311185e+02 1.99773763e+02 2.03060931e+02 1.98988884e+02 
        </DataArray>
        <DataArray type="Float64" Name="v">
          5.11417744e+00 4.76127761e+00 7.91653490e+00 1.23390142e+01 6.46369024e+00 9.30405106e+00 1.21375263e+01 1.58193376e+01 6.39598454e+00 9.95481603e+00 1.41648581e+01 1.81466790e+01 6.49532708e+00 1.28719286e+01 1.62428408e+01 1.87376272e+01 
        </DataArray>
        <DataArray type="Float64" Name="p">
          -4.69333196e+03 -4.84756757e+03 -5.00180317e+03 -5.15603878e+03 -4.96991361e+03 -5.16271892e+03 -5.35552423e+03 -5.54832954e+03 -5.24649525e+03 -5.47787027e+03 -5.70924529e+03 -5.94062030e+03 -5.52307690e+03 -5.79302162e+03 -6.06296634e+03 -6.33291107e+03 
        </DataArray>
      </PointData>
    </Piece>
    <Piece NumberOfPoints="16" NumberOfCells="9">
      <Points>
        <DataArray type="Float64" NumberOfComponents="3" format="ascii">
          2.50000000e+00 5.00000000e+00 0.00000000e+00 
3.33333325e+00 5.00000000e+00 0.00000000e+00 
4.16666651e+00 5.00000000e+00 0.00000000e+00 
5.00000000e+00 5.00000000e+00 0.00000000e+00 
2.50000000e+00 5.33333349e+00 0.00000000e+00 
3.33333325e+00 5.33333349e+00 0.00000000e+00 
4.16666651e+00 5.33333349e+00 0.00000000e+00 
5.00000000e+00 5.33333349e+00 0.00000000e+00 
2.50000000e+00 5.66666651e+00 0.00000000e+00 
3.33333325e+00 5.66666651e+00 0.00000000e+00 
4.16666651e+00 5.66666651e+00 0.00000000e+00 
5.00000000e+00 5.66666651e+00 0.00000000e+00 
2.50000000e+00 6.00000000e+00 0.00000000e+00 
3.33333325e+00 6.00000000e+00 0.00000000e+00 
4.16666651e+00 6.00000000e+00 0.00000000e+00 
5.00000000e+00 6.00000000e+00 0.00000000e+00 

        </DataArray>
      </Points>
      <Cells>
        <DataArray type="Int32" Name="connectivity" format="ascii">
0 1 5 4
4 5 9 8
8 9 13 12
1 2 6 5
5 6 10 9
9 10 14 13
2 3 7 6
6 7 11 10
10 11 15 14

        </DataArray>
        <DataArray type="Int32" Name="offsets" format="ascii">
4 8 12 16 20 24 28 32 36 
        </DataArray>
        <DataArray type="UInt8" Name="types" format="ascii">
9 9 9 9 9 9 9 9 9 
        </DataArray>
      </Cells>
      <PointData>
        <DataArray type="Float64" Name="u">
          2.04311185e+02 1.99773763e+02 2.03060931e+02 1.98988884e+02 1.63588054e+02 1.63273872e+02 1.69166901e+02 1.72096938e+02 1.00456696e+02 1.08107542e+02 1.19375441e+02 1.31076706e+02 0.00000000e+00 5.30007970e+01 6.47981130e+01 8.86213120e+01 
        </DataArray>
        <DataArray type="Float64" Name="v">
          6.49532708e+00 1.28719286e+01 1.62428408e+01 1.87376272e+01 4.16478911e+00 1.26204263e+01 1.57723160e+01 1.57839424e+01 4.21723712e+00 1.25008417e+01 1.41104780e+01 1.36711657e+01 0.00000000e+00 1.04299728e+00 6.05761589e+00 1.10011460e+01 
        </DataArray>
        <DataArray type="Float64" Name="p">
          -5.69123822e+03 -5.91902812e+03 -6.14681802e+03 -6.37460792e+03 -6.31092866e+03 -6.28510614e+03 -6.25928362e+03 -6.23346110e+03 -6.93061910e+03 -6.65118415e+03 -6.37174921e+03 -6.09231427e+03 -7.55030953e+03 -7.01726217e+03 -6.48421481e+03 -5.95116745e+03 
        </DataArray>
      </PointData>
    </Piece>
    <Piece NumberOfPoints="16" NumberOfCells="9">
      <Points>
        <DataArray type="Float64" NumberOfComponents="3" format="ascii">
          2.50000000e+00 6.00000000e+00 0.00000000e+00 
3.33333325e+00 6.00000000e+00 0.00000000e+00 
4.16666651e+00 6.00000000e+00 0.00000000e+00 
5.00000000e+00 6.00000000e+00 0.00000000e+00 
2.50000000e+00 6.33333349e+00 0.00000000e+00 
3.33333325e+00 6.33333349e+00 0.00000000e+00 
4.16666651e+00 6.33333349e+00 0.00000000e+00 
5.00000000e+00 6.33333349e+00 0.00000000e+00 
2.50000000e+00 6.66666651e+00 0.00000000e+00 
3.33333325e+00 6.66666651e+00 0.00000000e+00 
4.16666651e+00 6.66666651e+00 0.00000000e+00 
5.00000000e+00 6.66666651e+00 0.00000000e+00 
2.50000000e+00 7.00000000e+00 0.00000000e+00 
3.33333325e+00 7.00000000e+00 0.00000000e+00 
4.16666651e+00 7.00000000e+00 0.00000000e+00 
5.00000000e+00 7.00000000e+00 0.00000000e+00 

        </DataArray>
      </Points>
      <Cells>
        <DataArray type="Int32" Name="connectivity" format="ascii">
0 1 5 4
4 5 9 8
8 9 13 12
1 2 6 5
5 6 10 9
9 10 14 13
2 3 7 6
6 7 11 10
10 11 15 14

        </DataArray>
        <DataArray type="Int32" Name="offsets" format="ascii">
4 8 12 16 20 24 28 32 36 
        </DataArray>
        <DataArray type="UInt8" Name="types" format="ascii">
9 9 9 9 9 9 9 9 9 
        </DataArray>
      </Cells>
      <PointData>
        <DataArray type="Float64" Name="u">
          0.00000000e+00 5.30007970e+01 6.47981130e+01 8.86213120e+01 0.00000000e+00 1.40378544e+01 2.63645883e+01 4.83953247e+01 0.00000000e+00 -1.39514417e-02 6.48571873e+00 1.98703349e+01 0.00000000e+00 -4.81447700e+00 -3.62516824e+00 -3.35225135e-01 
        </DataArray>
        <DataArray type="Float64" Name="v">
          0.00000000e+00 1.04299728e+00 6.05761589e+00 1.10011460e+01 0.00000000e+00 -1.22797320e+01 -3.81575086e+00 6.30776305e+00 0.00000000e+00 -1.65818649e+01 -8.25430098e+00 1.68404749e+00 0.00000000e+00 -1.54504470e+01 -1.16096445e+01 -3.74996638e+00 
        </DataArray>
        <DataArray type="Float64" Name="p">
          -7.40200827e+03 -6.96057674e+03 -6.51914521e+03 -6.07771368e+03 -7.12381488e+03 -6.83519722e+03 -6.54657956e+03 -6.25796191e+03 -6.84562148e+03 -6.70981770e+03 -6.57401391e+03 -6.43821013e+03 -6.56742808e+03 -6.58443817e+03 -6.60144826e+03 -6.61845835e+03 
        </DataArray>
      </PointData>
    </Piece>
    <Piece NumberOfPoints="16" NumberOfCells="9">
      <Points>
        <DataArray type="Float64" NumberOfComponents="3" format="ascii">
          2.50000000e+00 7.00000000e+00 0.00000000e+00 
3.33333325e+00 7.00000000e+00 0.00000000e+00 
4.16666651e+00 7.00000000e+00 0.00000000e+00 
5.00000000e+00 7.00000000e+00 0.00000000e+00 
2.50000000e+00 7.33333349e+00 0.00000000e+00 
3.33333325e+00 7.33333349e+00 0.00000000e+00 
4.16666651e+00 7.33333349e+00 0.00000000e+00 
5.00000000e+00 7.33333349e+00 0.00000000e+00 
2.50000000e+00 7.66666651e+00 0.00000000e+00 
3.33333325e+00 7.66666651e+00 0.00000000e+00 
4.16666651e+00 7.66666651e+00 0.00000000e+00 
5.00000000e+00 7.66666651e+00 0.00000000e+00 
2.50000000e+00 8.00000000e+00 0.00000000e+00 
3.33333325e+00 8.00000000e+00 0.00000000e+00 
4.16666651e+00 8.00000000e+00 0.00000000e+00 
5.00000000e+00 8.00000000e+00 0.00000000e+00 

        </DataArray>
      </Points>
      <Cells>
        <DataArray type="Int32" Name="connectivity" format="ascii">
0 1 5 4
4 5 9 8
8 9 13 12
1 2 6 5
5 6 10 9
9 10 14 13
2 3 7 6
6 7 11 10
10 11 15 14

        </DataArray>
        <DataArray type="Int32" Name="offsets" format="ascii">
4 8 12 16 20 24 28 32 36 
        </DataArray>
        <DataArray type="UInt8" Name="types" format="ascii">
9 9 9 9 9 9 9 9 9 
        </DataArray>
      </Cells>
      <PointData>
        <DataArray type="Float64" Name="u">
          0.00000000e+00 -4.81447700e+00 -3.62516824e+00 -3.35225135e-01 0.00000000e+00 -6.89219220e+00 -9.72362961e+00 -1.22295894e+01 0.00000000e+00 -7.40549195e+00 -1.23625994e+01 -1.85140108e+01 0.00000000e+00 -6.83122749e+00 -1.22208236e+01 -1.98662168e+01 
        </DataArray>
        <DataArray type="Float64" Name="v">
          0.00000000e+00 -1.54504470e+01 -1.16096445e+01 -3.74996638e+00 0.00000000e+00 -1.26602166e+01 -1.09518570e+01 -5.66095949e+00 0.00000000e+00 -9.79341983e+00 -9.01815819e+00 -5.62750260e+00 0.00000000e+00 -5.95657248e+00 -5.93968361e+00 -4.26857551e+00 
        </DataArray>
        <DataArray type="Float64" Name="p">
          -6.60856131e+03 -6.57384685e+03 -6.53913240e+03 -6.50441794e+03 -6.53991166e+03 -6.50719307e+03 -6.47447448e+03 -6.44175589e+03 -6.47126202e+03 -6.44053929e+03 -6.40981657e+03 -6.37909384e+03 -6.40261237e+03 -6.37388551e+03 -6.34515865e+03 -6.31643179e+03 
        </DataArray>
      </PointData>
    </Piece>
    <Piece NumberOfPoints="16" NumberOfCells="9">
      <Points>
        <DataArray type="Float64" NumberOfComponents="3" format="ascii">
          2.50000000e+00 8.00000000e+00 0.00000000e+00 
3.33333325e+00 8.00000000e+00 0.00000000e+00 
4.16666651e+00 8.00000000e+00 0.00000000e+00 
5.00000000e+00 8.00000000e+00 0.00000000e+00 
2.50000000e+00 8.33333302e+00 0.00000000e+00 
3.33333325e+00 8.33333302e+00 0.00000000e+00 
4.16666651e+00 8.33333302e+00 0.00000000e+00 
5.00000000e+00 8.33333302e+00 0.00000000e+00 
2.50000000e+00 8.66666698e+00 0.00000000e+00 
3.33333325e+00 8.66666698e+00 0.00000000e+00 
4.16666651e+00 8.66666698e+00 0.00000000e+00 
5.00000000e+00 8.66666698e+00 0.00000000e+00 
2.50000000e+00 9.00000000e+00 0.00000000e+00 
3.33333325e+00 9.00000000e+00 0.00000000e+00 
4.16666651e+00 9.00000000e+00 0.00000000e+00 
5.00000000e+00 9.00000000e+00 0.00000000e+00 

        </DataArray>
      </Points>
      <Cells>
        <DataArray type="Int32" Name="connectivity" format="ascii">
0 1 5 4
4 5 9 8
8 9 13 12
1 2 6 5
5 6 10 9
9 10 14 13
2 3 7 6
6 7 11 10
10 11 15 14

        </DataArray>
        <DataArray type="Int32" Name="offsets" format="ascii">
4 8 12 16 20 24 28 32 36 
        </DataArray>
        <DataArray type="UInt8" Name="types" format="ascii">
9 9 9 9 9 9 9 9 9 
        </DataArray>
      </Cells>
      <PointData>
        <DataArray type="Float64" Name="u">
          0.00000000e+00 -6.83122749e+00 -1.22208236e+01 -1.98662168e+01 0.00000000e+00 -5.34703585e+00 -9.71174090e+00 -1.68568563e+01 0.00000000e+00 -3.03752613e+00 -5.40647911e+00 -9.81885788e+00 0.00000000e+00 0.00000000e+00 0.00000000e+00 0.00000000e+00 
        </DataArray>
        <DataArray type="Float64" Name="v">
          0.00000000e+00 -5.95657248e+00 -5.93968361e+00 -4.26857551e+00 0.00000000e+00 -2.71759138e+00 -2.80764148e+00 -2.20622199e+00 0.00000000e+00 -9.25139857e-01 -9.97627452e-01 -8.80744640e-01 0.00000000e+00 0.00000000e+00 0.00000000e+00 0.00000000e+00 
        </DataArray>
        <DataArray type="Float64" Name="p">
          -6.41474535e+03 -6.37721261e+03 -6.33967986e+03 -6.30214712e+03 -6.42411573e+03 -6.38800573e+03 -6.35189574e+03 -6.31578575e+03 -6.43348610e+03 -6.39879886e+03 -6.36411163e+03 -6.32942439e+03 -6.44285647e+03 -6.40959199e+03 -6.37632751e+03 -6.34306303e+03 
        </DataArray>
      </PointData>
    </Piece>
    <Piece NumberOfPoints="16" NumberOfCells="9">
      <Points>
        <DataArray type="Float64" NumberOfComponents="3" format="ascii">
          5.00000000e+00 0.00000000e+00 0.00000000e+00 
5.83333349e+00 0.00000000e+00 0.00000000e+00 
6.66666651e+00 0.00000000e+00 0.00000000e+00 
7.50000000e+00 0.00000000e+00 0.00000000e+00 
5.00000000e+00 3.33333343e-01 0.00000000e+00 
5.83333349e+00 3.33333343e-01 0.00000000e+00 
6.66666651e+00 3.33333343e-01 0.00000000e+00 
7.50000000e+00 3.33333343e-01 0.00000000e+00 
5.00000000e+00 6.66666687e-01 0.00000000e+00 
5.83333349e+00 6.66666687e-01 0.00000000e+00 
6.66666651e+00 6.66666687e-01 0.00000000e+00 
7.50000000e+00 6.66666687e-01 0.00000000e+00 
5.00000000e+00 1.00000000e+00 0.00000000e+00 
5.83333349e+00 1.00000000e+00 0.00000000e+00 
6.66666651e+00 1.00000000e+00 0.00000000e+00 
7.50000000e+00 1.00000000e+00 0.00000000e+00 

        </DataArray>
      </Points>
      <Cells>
        <DataArray type="Int32" Name="connectivity" format="ascii">
0 1 5 4
4 5 9 8
8 9 13 12
1 2 6 5
5 6 10 9
9 10 14 13
2 3 7 6
6 7 11 10
10 11 15 14

        </DataArray>
        <DataArray type="Int32" Name="offsets" format="ascii">
4 8 12 16 20 24 28 32 36 
        </DataArray>
        <DataArray type="UInt8" Name="types" format="ascii">
9 9 9 9 9 9 9 9 9 
        </DataArray>
      </Cells>
      <PointData>
        <DataArray type="Float64" Name="u">