<?xml version="1.0"?>
<VTKFile type="UnstructuredGrid" version="0.1" byte_order="LittleEndian">
  <UnstructuredGrid>
    <Piece NumberOfPoints="16" NumberOfCells="9">
      <Points>
        <DataArray type="Float64" NumberOfComponents="3" format="ascii">
          0.00000000e+00 3.00000000e+00 0.00000000e+00 
8.33333313e-01 3.00000000e+00 0.00000000e+00 
1.66666663e+00 3.00000000e+00 0.00000000e+00 
2.50000000e+00 3.00000000e+00 0.00000000e+00 
0.00000000e+00 3.33333325e+00 0.00000000e+00 
8.33333313e-01 3.33333325e+00 0.00000000e+00 
1.66666663e+00 3.33333325e+00 0.00000000e+00 
2.50000000e+00 3.33333325e+00 0.00000000e+00 
0.00000000e+00 3.66666675e+00 0.00000000e+00 
8.33333313e-01 3.66666675e+00 0.00000000e+00 
1.66666663e+00 3.66666675e+00 0.00000000e+00 
2.50000000e+00 3.66666675e+00 0.00000000e+00 
0.00000000e+00 4.00000000e+00 0.00000000e+00 
8.33333313e-01 4.00000000e+00 0.00000000e+00 
1.66666663e+00 4.00000000e+00 0.00000000e+00 
2.50000000e+00 4.00000000e+00 0.00000000e+00 

        </DataArray>
      </Points>
      <Cells>
        <DataArray type="Int32" Name="connectivity" format="ascii">
0 1 5 4
4 5 9 8
8 9 13 12
1 2 6 5
5 6 10 9
9 10 14 13
2 3 7 6
6 7 11 10
10 11 15 14

        </DataArray>
        <DataArray type="Int32" Name="offsets" format="ascii">
4 8 12 16 20 24 28 32 36 
        </DataArray>
        <DataArray type="UInt8" Name="types" format="ascii">
9 9 9 9 9 9 9 9 9 
        </DataArray>
      </Cells>
      <PointData>
        <DataArray type="Float64" Name="u">
          0.00000000e+00 0.00000000e+00 0.00000000e+00 0.00000000e+00 8.88888889e+01 8.68611056e+01 8.72824707e+01 8.15031034e+01 1.55555556e+02 1.52979980e+02 1.53800438e+02 1.48089404e+02 2.00000000e+02 1.97574207e+02 1.98475818e+02 1.93865002e+02 
        </DataArray>
        <DataArray type="Float64" Name="v">
          0.00000000e+00 0.00000000e+00 0.00000000e+00 0.00000000e+00 0.00000000e+00 6.48818408e-01 1.55538266e+00 1.32103729e+00 0.00000000e+00 6.22645785e-01 1.72148176e+00 2.83368316e+00 0.00000000e+00 1.65720978e+00 3.46654873e+00 4.90504791e+00 
        </DataArray>
        <DataArray type="Float64" Name="p">
          -1.99387889e+03 -3.08152377e+03 -4.16916864e+03 -5.25681352e+03 -2.02973694e+03 -3.12206190e+03 -4.21438686e+03 -5.30671181e+03 -2.06559500e+03 -3.16260003e+03 -4.25960507e+03 -5.35661010e+03 -2.10145305e+03 -3.20313816e+03 -4.30482328e+03 -5.40650839e+03 
        </DataArray>
      </PointData>
    </Piece>
    <Piece NumberOfPoints="16" NumberOfCells="9">
      <Points>
        <DataArray type="Float64" NumberOfComponents="3" format="ascii">
          0.00000000e+00 4.00000000e+00 0.00000000e+00 
8.33333313e-01 4.00000000e+00 0.00000000e+00 
1.66666663e+00 4.00000000e+00 0.00000000e+00 
2.50000000e+00 4.00000000e+00 0.00000000e+00 
0.00000000e+00 4.33333349e+00 0.00000000e+00 
8.33333313e-01 4.33333349e+00 0.00000000e+00 
1.66666663e+00 4.33333349e+00 0.00000000e+00 
2.50000000e+00 4.33333349e+00 0.00000000e+00 
0.00000000e+00 4.66666651e+00 0.00000000e+00 
8.33333313e-01 4.66666651e+00 0.00000000e+00 
1.66666663e+00 4.66666651e+00 0.00000000e+00 
2.50000000e+00 4.66666651e+00 0.00000000e+00 
0.00000000e+00 5.00000000e+00 0.00000000e+00 
8.33333313e-01 5.00000000e+00 0.00000000e+00 
1.66666663e+00 5.00000000e+00 0.00000000e+00 
2.50000000e+00 5.00000000e+00 0.00000000e+00 

        </DataArray>
      </Points>
      <Cells>
        <DataArray type="Int32" Name="connectivity" format="ascii">
0 1 5 4
4 5 9 8
8 9 13 12
1 2 6 5
5 6 10 9
9 10 14 13
2 3 7 6
6 7 11 10
10 11 15 14

        </DataArray>
        <DataArray type="Int32" Name="offsets" format="ascii">
4 8 12 16 20 24 28 32 36 
        </DataArray>
        <DataArray type="UInt8" Name="types" format="ascii">
9 9 9 9 9 9 9 9 9 
        </DataArray>
      </Cells>
      <PointData>
        <DataArray type="Float64" Name="u">
          2.00000000e+02 1.97574207e+02 1.98475818e+02 1.93865002e+02 2.22222222e+02 2.20659941e+02 2.21453697e+02 2.19044654e+02 2.22222222e+02 2.21821675e+02 2.22741584e+02 2.22599966e+02 2.00000000e+02 2.00796421e+02 2.01894002e+02 2.04102527e+02 
        </DataArray>
        <DataArray type="Float64" Name="v">
          0.00000000e+00 1.65720978e+00 3.46654873e+00 4.90504791e+00 0.00000000e+00 2.31043682e+00 4.21902544e+00 6.25758523e+00 0.00000000e+00 2.30763887e+00 4.39518506e+00 6.18808998e+00 0.00000000e+00 2.19388988e+00 3.84752711e+00 6.32485045e+00 
        </DataArray>
        <DataArray type="Float64" Name="p">
          -2.10196286e+03 -3.22297739e+03 -4.34399192e+03 -5.46500645e+03 -2.30590262e+03 -3.41609601e+03 -4.52628940e+03 -5.63648279e+03 -2.50984238e+03 -3.60921463e+03 -4.70858688e+03 -5.80795913e+03 -2.71378215e+03 -3.80233325e+03 -4.89088436e+03 -5.97943546e+03 
        </DataArray>
      </PointData>
    </Piece>
    <Piece NumberOfPoints="16" NumberOfCells="9">
      <Points>
        <DataArray type="Float64" NumberOfComponents="3" format="ascii">
          0.00000000e+00 5.00000000e+00 0.00000000e+00 
8.33333313e-01 5.00000000e+00 0.00000000e+00 
1.66666663e+00 5.00000000e+00 0.00000000e+00 
2.50000000e+00 5.00000000e+00 0.00000000e+00 
0.00000000e+00 5.33333349e+00 0.00000000e+00 
8.33333313e-01 5.33333349e+00 0.00000000e+00 
1.66666663e+00 5.33333349e+00 0.00000000e+00 
2.50000000e+00 5.33333349e+00 0.00000000e+00 
0.00000000e+00 5.66666651e+00 0.00000000e+00 
8.33333313e-01 5.66666651e+00 0.00000000e+00 
1.66666663e+00 5.66666651e+00 0.00000000e+00 
2.50000000e+00 5.66666651e+00 0.00000000e+00 
0.00000000e+00 6.00000000e+00 0.00000000e+00 
8.33333313e-01 6.00000000e+00 0.00000000e+00 
1.66666663e+00 6.00000000e+00 0.00000000e+00 
2.50000000e+00 6.00000000e+00 0.00000000e+00 

        </DataArray>
      </Points>
      <Cells>
        <DataArray type="Int32" Name="connectivity" format="ascii">
0 1 5 4
4 5 9 8
8 9 13 12
1 2 6 5
5 6 10 9
9 10 14 13
2 3 7 6
6 7 11 10
10 11 15 14

        </DataArray>
        <DataArray type="Int32" Name="offsets" format="ascii">
4 8 12 16 20 24 28 32 36 
        </DataArray>
        <DataArray type="UInt8" Name="types" format="ascii">
9 9 9 9 9 9 9 9 9 
        </DataArray>
      </Cells>
      <PointData>
        <DataArray type="Float64" Name="u">
          2.00000000e+02 2.00796421e+02 2.01894002e+02 2.04102527e+02 1.55555556e+02 1.57930307e+02 1.58353447e+02 1.63344894e+02 8.88888889e+01 9.21751613e+01 9.14465608e+01 1.00106292e+02 0.00000000e+00 0.00000000e+00 0.00000000e+00 0.00000000e+00 
        </DataArray>
        <DataArray type="Float64" Name="v">
          0.00000000e+00 2.19388988e+00 3.84752711e+00 6.32485045e+00 0.00000000e+00 9.68088904e-01 2.21247870e+00 4.08526901e+00 0.00000000e+00 1.14147895e+00 1.64336783e+00 4.15398675e+00 0.00000000e+00 0.00000000e+00 0.00000000e+00 0.00000000e+00 
        </DataArray>
        <DataArray type="Float64" Name="p">
          -2.75254749e+03 -3.84257094e+03 -4.93259439e+03 -6.02261784e+03 -2.77849850e+03 -3.89032151e+03 -5.00214451e+03 -6.11396752e+03 -2.80444951e+03 -3.93807207e+03 -5.07169463e+03 -6.20531720e+03 -2.83040051e+03 -3.98582263e+03 -5.14124475e+03 -6.29666687e+03 
        </DataArray>
      </PointData>
    </Piece>
    <Piece NumberOfPoints="16" NumberOfCells="9">
      <Points>
        <DataArray type="Float64" NumberOfComponents="3" format="ascii">
          2.50000000e+00 0.00000000e+00 0.00000000e+00 
3.33333325e+00 0.00000000e+00 0.00000000e+00 
4.16666651e+00 0.00000000e+00 0.00000000e+00 
5.00000000e+00 0.00000000e+00 0.00000000e+00 
2.50000000e+00 3.33333343e-01 0.00000000e+00 
3.33333325e+00 3.33333343e-01 0.00000000e+00 
4.16666651e+00 3.33333343e-01 0.00000000e+00 
5.00000000e+00 3.33333343e-01 0.00000000e+00 
2.50000000e+00 6.66666687e-01 0.00000000e+00 
3.33333325e+00 6.66666687e-01 0.00000000e+00 
4.16666651e+00 6.66666687e-01 0.00000000e+00 
5.00000000e+00 6.66666687e-01 0.00000000e+00 
2.50000000e+00 1.00000000e+00 0.00000000e+00 
3.33333325e+00 1.00000000e+00 0.00000000e+00 
4.16666651e+00 1.00000000e+00 0.00000000e+00 
5.00000000e+00 1.00000000e+00 0.00000000e+00 

        </DataArray>
      </Points>
      <Cells>
        <DataArray type="Int32" Name="connectivity" format="ascii">
0 1 5 4
4 5 9 8
8 9 13 12
1 2 6 5
5 6 10 9
9 10 14 13
2 3 7 6
6 7 11 10
10 11 15 14

        </DataArray>
        <DataArray type="Int32" Name="offsets" format="ascii">
4 8 12 16 20 24 28 32 36 
        </DataArray>
        <DataArray type="UInt8" Name="types" format="ascii">
9 9 9 9 9 9 9 9 9 
        </DataArray>
      </Cells>
      <PointData>
        <DataArray type="Float64" Name="u">
          0.00000000e+00 0.00000000e+00 0.00000000e+00 0.00000000e+00 0.00000000e+00 -2.18690261e+00 -3.90529384e+00 -6.88340988e+00 0.00000000e+00 -3.94790475e+00 -7.20675226e+00 -1.19663286e+01 0.00000000e+00 -5.27840235e+00 -9.54540683e+00 -1.50956799e+01 
        </DataArray>
        <DataArray type="Float64" Name="v">
          0.00000000e+00 0.00000000e+00 0.00000000e+00 0.00000000e+00 0.00000000e+00 6.50455221e-01 7.07372114e-01 4.62184684e-01 0.00000000e+00 1.99778555e+00 2.00551379e+00 1.32870333e+00 0.00000000e+00 4.45638720e+00 4.16532363e+00 2.79282563e+00 
        </DataArray>
        <DataArray type="Float64" Name="p">
          -4.65958072e+03 -4.63831005e+03 -4.61703938e+03 -4.59576870e+03 -4.65031998e+03 -4.62901198e+03 -4.60770399e+03 -4.58639600e+03 -4.64105923e+03 -4.61971392e+03 -4.59836861e+03 -4.57702330e+03 -4.63179849e+03 -4.61041586e+03 -4.58903323e+03 -4.56765060e+03 
        </DataArray>
      </PointData>
    </Piece>
    <Piece NumberOfPoints="16" NumberOfCells="9">
      <Points>
        <DataArray type="Float64" NumberOfComponents="3" format="ascii">
          2.50000000e+00 1.00000000e+00 0.00000000e+00 
3.33333325e+00 1.00000000e+00 0.00000000e+00 
4.16666651e+00 1.00000000e+00 0.00000000e+00 
5.00000000e+00 1.00000000e+00 0.00000000e+00 
2.50000000e+00 1.33333337e+00 0.00000000e+00 
3.33333325e+00 1.33333337e+00 0.00000000e+00 
4.16666651e+00 1.33333337e+00 0.00000000e+00 
5.00000000e+00 1.33333337e+00 0.00000000e+00 
2.50000000e+00 1.66666663e+00 0.00000000e+00 
3.33333325e+00 1.66666663e+00 0.00000000e+00 
4.16666651e+00 1.66666663e+00 0.00000000e+00 
5.00000000e+00 1.66666663e+00 0.00000000e+00 
2.50000000e+00 2.00000000e+00 0.00000000e+00 
3.33333325e+00 2.00000000e+00 0.00000000e+00 
4.16666651e+00 2.00000000e+00 0.00000000e+00 
5.00000000e+00 2.00000000e+00 0.00000000e+00 

        </DataArray>
      </Points>
      <Cells>
        <DataArray type="Int32" Name="connectivity" format="ascii">
0 1 5 4
4 5 9 8
8 9 13 12
1 2 6 5
5 6 10 9
9 10 14 13
2 3 7 6
6 7 11 10
10 11 15 14

        </DataArray>
        <DataArray type="Int32" Name="offsets" format="ascii">
4 8 12 16 20 24 28 32 36 
        </DataArray>
        <DataArray type="UInt8" Name="types" format="ascii">
9 9 9 9 9 9 9 9 9 
        </DataArray>
      </Cells>
      <PointData>
        <DataArray type="Float64" Name="u">
          0.00000000e+00 -5.27840235e+00 -9.54540683e+00 -1.50956799e+01 0.00000000e+00 -6.15600245e+00 -1.06361748e+01 -1.60671543e+01 0.00000000e+00 -6.35906418e+00 -1.00521736e+01 -1.42700376e+01 0.00000000e+00 -5.40612162e+00 -7.11416945e+00 -8.96161964e+00 
        </DataArray>
        <DataArray type="Float64" Name="v">
          0.00000000e+00 4.45638720e+00 4.16532363e+00 2.79282563e+00 0.00000000e+00 7.60636779e+00 6.55511718e+00 4.17307938e+00 0.00000000e+00 1.01940692e+01 8.39993940e+00 5.02823748e+00 0.00000000e+00 1.32091872e+01 9.93526851e+00 5.25214124e+00 
        </DataArray>
        <DataArray type="Float64" Name="p">
          -4.61947947e+03 -4.60371427e+03 -4.58794906e+03 -4.57218386e+03 -4.68016963e+03 -4.65319672e+03 -4.62622382e+03 -4.59925092e+03 -4.74085978e+03 -4.70267918e+03 -4.66449858e+03 -4.62631798e+03 -4.80154994e+03 -4.75216164e+03 -4.70277334e+03 -4.65338504e+03 
        </DataArray>
      </PointData>
    </Piece>
    <Piece NumberOfPoints="16" NumberOfCells="9">
      <Points>
        <DataArray type="Float64" NumberOfComponents="3" format="ascii">
          2.50000000e+00 2.00000000e+00 0.00000000e+00 
3.33333325e+00 2.00000000e+00 0.00000000e+00 
4.16666651e+00 2.00000000e+00 0.00000000e+00 
5.00000000e+00 2.00000000e+00 0.00000000e+00 
2.50000000e+00 2.33333325e+00 0.00000000e+00 
3.33333325e+00 2.33333325e+00 0.00000000e+00 
4.16666651e+00 2.33333325e+00 0.00000000e+00 
5.00000000e+00 2.33333325e+00 0.00000000e+00 
2.50000000e+00 2.66666675e+00 0.00000000e+00 
3.33333325e+00 2.66666675e+00 0.00000000e+00 
4.16666651e+00 2.66666675e+00 0.00000000e+00 
5.00000000e+00 2.66666675e+00 0.00000000e+00 
2.50000000e+00 3.00000000e+00 0.00000000e+00 
3.33333325e+00 3.00000000e+00 0.00000000e+00 
4.16666651e+00 3.00000000e+00 0.00000000e+00 
5.00000000e+00 3.00000000e+00 0.00000000e+00 

        </DataArray>
      </Points>
      <Cells>
        <DataArray type="Int32" Name="connectivity" format="ascii">
0 1 5 4
4 5 9 8
8 9 13 12
1 2 6 5
5 6 10 9
9 10 14 13
2 3 7 6
6 7 11 10
10 11 15 14

        </DataArray>
        <DataArray type="Int32" Name="offsets" format="ascii">
4 8 12 16 20 24 28 32 36 
        </DataArray>
        <DataArray type="UInt8" Name="types" format="ascii">
9 9 9 9 9 9 9 9 9 
        </DataArray>
      </Cells>
      <PointData>
        <DataArray type="Float64" Name="u">
          0.00000000e+00 -5.40612162e+00 -7.11416945e+00 -8.96161964e+00 0.00000000e+00 -2.27867841e+00 -1.15839197e+00 2.05103219e+00 0.00000000e+00 7.59530335e+00 1.13415549e+01 1.96667713e+01 0.00000000e+00 3.62778111e+01 3.66491011e+01 4.71379516e+01 
        </DataArray>
        <DataArray type="Float64" Name="v">
          0.00000000e+00 1.32091872e+01 9.93526851e+00 5.25214124e+00 0.00000000e+00 1.52684497e+01 9.36296432e+00 3.91499749e+00 0.00000000e+00 1.36456677e+01 8.40832492e+00 2.92017735e+00 0.00000000e+00 5.92597545e+00 4.31005929e+00 2.64550702e+00 
        </DataArray>
        <DataArray type="Float64" Name="p">
          -4.77939712e+03 -4.76051101e+03 -4.74162490e+03 -4.72273879e+03 -5.00837306e+03 -4.88008575e+03 -4.75179844e+03 -4.62351113e+03 -5.23734900e+03 -4.99966048e+03 -4.76197197e+03 -4.52428346e+03 -5.46632493e+03 -5.11923522e+03 -4.77214551e+03 -4.42505580e+03 
        </DataArray>
      </PointData>
    </Piece>
    <Piece NumberOfPoints="16" NumberOfCells="9">
      <Points>
        <DataArray type="Float64" NumberOfComponents="3" format="ascii">
          2.50000000e+00 3.00000000e+00 0.00000000e+00 
3.33333325e+00 3.00000000e+00 0.00000000e+00 
4.16666651e+00 3.00000000e+00 0.00000000e+00 
5.00000000e+00 3.00000000e+00 0.00000000e+00 
2.50000000e+00 3.33333325e+00 0.00000000e+00 
3.33333325e+00 3.33333325e+00 0.00000000e+00 
4.16666651e+00 3.33333325e+00 0.00000000e+00 
5.00000000e+00 3.33333325e+00 0.00000000e+00 
2.50000000e+00 3.66666675e+00 0.00000000e+00 
3.33333325e+00 3.66666675e+00 0.00000000e+00 
4.16666651e+00 3.66666675e+00 0.00000000e+00 
5.00000000e+00 3.66666675e+00 0.00000000e+00 
2.50000000e+00 4.00000000e+00 0.00000000e+00 
3.33333325e+00 4.00000000e+00 0.00000000e+00 
4.16666651e+00 4.00000000e+00 0.00000000e+00 
5.00000000e+00 4.00000000e+00 0.00000000e+00 

        </DataArray>
      </Points>
      <Cells>
        <DataArray type="Int32" Name="connectivity" format="ascii">
0 1 5 4
4 5 9 8
8 9 13 12
1 2 6 5
5 6 10 9
9 10 14 13
2 3 7 6
6 7 11 10
10 11 15 14

        </DataArray>
        <DataArray type="Int32" Name="offsets" format="ascii">
4 8 12 16 20 24 28 32 36 
        </DataArray>
        <DataArray type="UInt8" Name="types" format="ascii">
9 9 9 9 9 9 9 9 9 
        </DataArray>
      </Cells>
      <PointData>
        <DataArray type="Float64" Name="u">
          0.00000000e+00 3.62778111e+01 3.66491011e+01 4.71379516e+01 8.15031034e+01 8.31318484e+01 8.13686844e+01 8.07814999e+01 1.48089404e+02 1.40398846e+02 1.34547826e+02 1.25782967e+02 1.93865002e+02 1.85309165e+02 1.79695839e+02 1.67930558e+02 
        </DataArray>
        <DataArray type="Float64" Name="v">
          0.00000000e+00 5.92597545e+00 4.31005929e+00 2.64550702e+00 1.32103729e+00 6.61682942e-02 3.35029786e+00 6.50447056e+00 2.83368316e+00 2.41858495e-01 2.43755081e+00 7.61178469e+00 4.90504791e+00 4.40494552e+00 7.49581330e+00 1.18985324e+01 
        </DataArray>
        <DataArray type="Float64" Name="p">
          -5.50061157e+03 -5.06518339e+03 -4.62975520e+03 -4.19432702e+03 -5.25727755e+03 -4.99068678e+03 -4.72409601e+03 -4.45750525e+03 -5.01394352e+03 -4.91619017e+03 -4.81843682e+03 -4.72068347e+03 -4.77060949e+03 -4.84169356e+03 -4.91277763e+03 -4.98386170e+03 
        </DataArray>
      </PointData>
    </Piece>
    <Piece NumberOfPoints="16" NumberOfCells="9">
      <Points>
        <DataArray type="Float64" NumberOfComponents="3" format="ascii">
          2.50000000e+00 4.00000000e+00 0.00000000e+00 
3.33333325e+00 4.00000000e+00 0.00000000e+00 
4.16666651e+00 4.00000000e+00 0.00000000e+00 
5.00000000e+00 4.00000000e+00 0.00000000e+00 
2.50000000e+00 4.33333349e+00 0.00000000e+00 
3.33333325e+00 4.33333349e+00 0.00000000e+00 
4.16666651e+00 4.33333349e+00 0.00000000e+00 
5.00000000e+00 4.33333349e+00 0.00000000e+00 
2.50000000e+00 4.66666651e+00 0.00000000e+00 
3.33333325e+00 4.66666651e+00 0.00000000e+00 
4.16666651e+00 4.66666651e+00 0.00000000e+00 
5.00000000e+00 4.66666651e+00 0.00000000e+00 
2.50000000e+00 5.00000000e+00 0.00000000e+00 
3.33333325e+00 5.00000000e+00 0.00000000e+00 
4.16666651e+00 5.00000000e+00 0.00000000e+00 
5.00000000e+00 5.00000000e+00 0.00000000e+00 

        </DataArray>
      </Points>
      <Cells>
        <DataArray type="Int32" Name="connectivity" format="ascii">
0 1 5 4
4 5 9 8
8 9 13 12
1 2 6 5
5 6 10 9
9 10 14 13
2 3 7 6
6 7 11 10
10 11 15 14

        </DataArray>
        <DataArray type="Int32" Name="offsets" format="ascii">
4 8 12 16 20 24 28 32 36 
        </DataArray>
        <DataArray type="UInt8" Name="types" format="ascii">
9 9 9 9 9 9 9 9 9 
        </DataArray>
      </Cells>
      <PointData>
        <DataArray type="Float64" Name="u">
          1.93865002e+02 1.85309165e+02 1.79695839e+02 1.67930558e+02 2.19044654e+02 2.10937270e+02 2.07035586e+02 1.96525240e+02 2.22599966e+02 2.16079710e+02 2.14993016e+02 2.07429339e+02 2.04102527e+02 1.99387214e+02 2.02492348e+02 1.98173993e+02 
        </DataArray>
        <DataArray type="Float64" Name="v">
          4.90504791e+00 4.40494552e+00 7.49581330e+00 1.18985324e+01 6.25758523e+00 8.97366100e+00 1.16974562e+01 1.52949631e+01 6.18808998e+00 9.67978178e+00 1.38023841e+01 1.76638350e+01 6.32485045e+00 1.26816129e+01 1.59437441e+01 1.82781749e+01 
        </DataArray>
        <DataArray type="Float64" Name="p">
          -4.67057448e+03 -4.82673590e+03 -4.98289733e+03 -5.13905875e+03 -4.93921134e+03 -5.13337321e+03 -5.32753508e+03 -5.52169696e+03 -5.20784820e+03 -5.44001052e+03 -5.67217284e+03 -5.90433517e+03 -5.47648505e+03 -5.74664783e+03 -6.01681060e+03 -6.28697338e+03 
        </DataArray>
      </PointData>
    </Piece>
    <Piece NumberOfPoints="16" NumberOfCells="9">
      <Points>
        <DataArray type="Float64" NumberOfComponents="3" format="ascii">
          2.50000000e+00 5.00000000e+00 0.00000000e+00 
3.33333325e+00 5.00000000e+00 0.00000000e+00 
4.16666651e+00 5.00000000e+00 0.00000000e+00 
5.00000000e+00 5.00000000e+00 0.00000000e+00 
2.50000000e+00 5.33333349e+00 0.00000000e+00 
3.33333325e+00 5.33333349e+00 0.00000000e+00 
4.16666651e+00 5.33333349e+00 0.00000000e+00 
5.00000000e+00 5.33333349e+00 0.00000000e+00 
2.50000000e+00 5.66666651e+00 0.00000000e+00 
3.33333325e+00 5.66666651e+00 0.00000000e+00 
4.16666651e+00 5.66666651e+00 0.00000000e+00 
5.00000000e+00 5.66666651e+00 0.00000000e+00 
2.50000000e+00 6.00000000e+00 0.00000000e+00 
3.33333325e+00 6.00000000e+00 0.00000000e+00 
4.16666651e+00 6.00000000e+00 0.00000000e+00 
5.00000000e+00 6.00000000e+00 0.00000000e+00 

        </DataArray>
      </Points>
      <Cells>
        <DataArray type="Int32" Name="connectivity" format="ascii">
0 1 5 4
4 5 9 8
8 9 13 12
1 2 6 5
5 6 10 9
9 10 14 13
2 3 7 6
6 7 11 10
10 11 15 14

        </DataArray>
        <DataArray type="Int32" Name="offsets" format="ascii">
4 8 12 16 20 24 28 32 36 
        </DataArray>
        <DataArray type="UInt8" Name="types" format="ascii">
9 9 9 9 9 9 9 9 9 
        </DataArray>
      </Cells>
      <PointData>
        <DataArray type="Float64" Name="u">
          2.04102527e+02 1.99387214e+02 2.02492348e+02 1.98173993e+02 1.63344894e+02 1.62790181e+02 1.68478354e+02 1.71154066e+02 1.00106292e+02 1.07700584e+02 1.18762390e+02 1.30267087e+02 0.00000000e+00 5.30149339e+01 6.46005805e+01 8.82652136e+01 
        </DataArray>
        <DataArray type="Float64" Name="v">
          6.32485045e+00 1.26816129e+01 1.59437441e+01 1.82781749e+01 4.08526901e+00 1.25889811e+01 1.56309475e+01 1.54792801e+01 4.15398675e+00 1.24163569e+01 1.39147121e+01 1.33858120e+01 0.00000000e+00 1.03917202e+00 5.99697417e+00 1.08720263e+01 
        </DataArray>
        <DataArray type="Float64" Name="p">
          -5.64918225e+03 -5.87359442e+03 -6.09800659e+03 -6.32241876e+03 -6.27517046e+03 -6.24077061e+03 -6.20637075e+03 -6.17197089e+03 -6.90115868e+03 -6.60794679e+03 -6.31473490e+03 -6.02152302e+03 -7.52714689e+03 -6.97512298e+03 -6.42309906e+03 -5.87107515e+03 
        </DataArray>
      </PointData>
    </Piece>
    <Piece NumberOfPoints="16" NumberOfCells="9">
      <Points>
        <DataArray type="Float64" NumberOfComponents="3" format="ascii">
          2.50000000e+00 6.00000000e+00 0.00000000e+00 
3.33333325e+00 6.00000000e+00 0.00000000e+00 
4.16666651e+00 6.00000000e+00 0.00000000e+00 
5.00000000e+00 6.00000000e+00 0.00000000e+00 
2.50000000e+00 6.33333349e+00 0.00000000e+00 
3.33333325e+00 6.33333349e+00 0.00000000e+00 
4.16666651e+00 6.33333349e+00 0.00000000e+00 
5.00000000e+00 6.33333349e+00 0.00000000e+00 
2.50000000e+00 6.66666651e+00 0.00000000e+00 
3.33333325e+00 6.66666651e+00 0.00000000e+00 
4.16666651e+00 6.66666651e+00 0.00000000e+00 
5.00000000e+00 6.66666651e+00 0.00000000e+00 
2.50000000e+00 7.00000000e+00 0.00000000e+00 
3.33333325e+00 7.00000000e+00 0.00000000e+00 
4.16666651e+00 7.00000000e+00 0.00000000e+00 
5.00000000e+00 7.00000000e+00 0.00000000e+00 

        </DataArray>
      </Points>
      <Cells>
        <DataArray type="Int32" Name="connectivity" format="ascii">
0 1 5 4
4 5 9 8
8 9 13 12
1 2 6 5
5 6 10 9
9 10 14 13
2 3 7 6
6 7 11 10
10 11 15 14

        </DataArray>
        <DataArray type="Int32" Name="offsets" format="ascii">
4 8 12 16 20 24 28 32 36 
        </DataArray>
        <DataArray type="UInt8" Name="types" format="ascii">
9 9 9 9 9 9 9 9 9 
        </DataArray>
      </Cells>
      <PointData>
        <DataArray type="Float64" Name="u">
          0.00000000e+00 5.30149339e+01 6.46005805e+01 8.82652136e+01 0.00000000e+00 1.42150512e+01 2.65292111e+01 4.83926310e+01 0.00000000e+00 5.25175959e-02 6.64036884e+00 1.99710187e+01 0.00000000e+00 -4.83819585e+00 -3.54756731e+00 -2.39814326e-01 
        </DataArray>
        <DataArray type="Float64" Name="v">
          0.00000000e+00 1.03917202e+00 5.99697417e+00 1.08720263e+01 0.00000000e+00 -1.23201424e+01 -3.80130083e+00 6.30739936e+00 0.00000000e+00 -1.66832990e+01 -8.27176702e+00 1.73647113e+00 0.00000000e+00 -1.55754994e+01 -1.16269371e+01 -3.65876493e+00 
        </DataArray>
        <DataArray type="Float64" Name="p">
          -7.38246008e+03 -6.92250842e+03 -6.46255677e+03 -6.00260512e+03 -7.09416844e+03 -6.79183400e+03 -6.48949956e+03 -6.18716512e+03 -6.80587680e+03 -6.66115957e+03 -6.51644235e+03 -6.37172512e+03 -6.51758515e+03 -6.53048514e+03 -6.54338514e+03 -6.55628513e+03 
        </DataArray>
      </PointData>
    </Piece>
    <Piece NumberOfPoints="16" NumberOfCells="9">
      <Points>
        <DataArray type="Float64" NumberOfComponents="3" format="ascii">
          2.50000000e+00 7.00000000e+00 0.00000000e+00 
3.33333325e+00 7.00000000e+00 0.00000000e+00 
4.16666651e+00 7.00000000e+00 0.00000000e+00 
5.00000000e+00 7.00000000e+00 0.00000000e+00 
2.50000000e+00 7.33333349e+00 0.00000000e+00 
3.33333325e+00 7.33333349e+00 0.00000000e+00 
4.16666651e+00 7.33333349e+00 0.00000000e+00 
5.00000000e+00 7.33333349e+00 0.00000000e+00 
2.50000000e+00 7.66666651e+00 0.00000000e+00 
3.33333325e+00 7.66666651e+00 0.00000000e+00 
4.16666651e+00 7.66666651e+00 0.00000000e+00 
5.00000000e+00 7.66666651e+00 0.00000000e+00 
2.50000000e+00 8.00000000e+00 0.00000000e+00 
3.33333325e+00 8.00000000e+00 0.00000000e+00 
4.16666651e+00 8.00000000e+00 0.00000000e+00 
5.00000000e+00 8.00000000e+00 0.00000000e+00 

        </DataArray>
      </Points>
      <Cells>
        <DataArray type="Int32" Name="connectivity" format="ascii">
0 1 5 4
4 5 9 8
8 9 13 12
1 2 6 5
5 6 10 9
9 10 14 13
2 3 7 6
6 7 11 10
10 11 15 14

        </DataArray>
        <DataArray type="Int32" Name="offsets" format="ascii">
4 8 12 16 20 24 28 32 36 
        </DataArray>
        <DataArray type="UInt8" Name="types" format="ascii">
9 9 9 9 9 9 9 9 9 
        </DataArray>
      </Cells>
      <PointData>
        <DataArray type="Float64" Name="u">
          0.00000000e+00 -4.83819585e+00 -3.54756731e+00 -2.39814326e-01 0.00000000e+00 -6.96273289e+00 -9.70463699e+00 -1.21963820e+01 0.00000000e+00 -7.49719887e+00 -1.23928138e+01 -1.85467341e+01 0.00000000e+00 -6.92963000e+00 -1.22868392e+01 -1.99557517e+01 
        </DataArray>
        <DataArray type="Float64" Name="v">
          0.00000000e+00 -1.55754994e+01 -1.16269371e+01 -3.65876493e+00 0.00000000e+00 -1.27813956e+01 -1.09899578e+01 -5.59216501e+00 0.00000000e+00 -9.89828836e+00 -9.06299276e+00 -5.57957474e+00 0.00000000e+00 -6.03143655e+00 -5.98552918e+00 -4.24521156e+00 
        </DataArray>
        <DataArray type="Float64" Name="p">
          -6.55963513e+03 -6.51984017e+03 -6.48004522e+03 -6.44025026e+03 -6.48762063e+03 -6.45063453e+03 -6.41364844e+03 -6.37666234e+03 -6.41560613e+03 -6.38142889e+03 -6.34725166e+03 -6.31307442e+03 -6.34359163e+03 -6.31222325e+03 -6.28085488e+03 -6.24948651e+03 
        </DataArray>
      </PointData>
    </Piece>
    <Piece NumberOfPoints="16" NumberOfCells="9">
      <Points>
        <DataArray type="Float64" NumberOfComponents="3" format="ascii">
          2.50000000e+00 8.00000000e+00 0.00000000e+00 
3.33333325e+00 8.00000000e+00 0.00000000e+00 
4.16666651e+00 8.00000000e+00 0.00000000e+00 
5.00000000e+00 8.00000000e+00 0.00000000e+00 
2.50000000e+00 8.33333302e+00 0.00000000e+00 
3.33333325e+00 8.33333302e+00 0.00000000e+00 
4.16666651e+00 8.33333302e+00 0.00000000e+00 
5.00000000e+00 8.33333302e+00 0.00000000e+00 
2.50000000e+00 8.66666698e+00 0.00000000e+00 
3.33333325e+00 8.66666698e+00 0.00000000e+00 
4.16666651e+00 8.66666698e+00 0.00000000e+00 
5.00000000e+00 8.66666698e+00 0.00000000e+00 
2.50000000e+00 9.00000000e+00 0.00000000e+00 
3.33333325e+00 9.00000000e+00 0.00000000e+00 
4.16666651e+00 9.00000000e+00 0.00000000e+00 
5.00000000e+00 9.00000000e+00 0.00000000e+00 

        </DataArray>
      </Points>
      <Cells>
        <DataArray type="Int32" Name="connectivity" format="ascii">
0 1 5 4
4 5 9 8
8 9 13 12
1 2 6 5
5 6 10 9
9 10 14 13
2 3 7 6
6 7 11 10
10 11 15 14

        </DataArray>
        <DataArray type="Int32" Name="offsets" format="ascii">
4 8 12 16 20 24 28 32 36 
        </DataArray>
        <DataArray type="UInt8" Name="types" format="ascii">
9 9 9 9 9 9 9 9 9 
        </DataArray>
      </Cells>
      <PointData>
        <DataArray type="Float64" Name="u">
          0.00000000e+00 -6.92963000e+00 -1.22868392e+01 -1.99557517e+01 0.00000000e+00 -5.44040640e+00 -9.79434554e+00 -1.69858540e+01 0.00000000e+00 -3.10341508e+00 -5.46918733e+00 -9.94231941e+00 0.00000000e+00 0.00000000e+00 0.00000000e+00 0.00000000e+00 
        </DataArray>
        <DataArray type="Float64" Name="v">
          0.00000000e+00 -6.03143655e+00 -5.98552918e+00 -4.24521156e+00 0.00000000e+00 -2.75625998e+00 -2.84180115e+00 -2.19107659e+00 0.00000000e+00 -9.40274664e-01 -1.01574676e+00 -8.76075111e-01 0.00000000e+00 0.00000000e+00 0.00000000e+00 0.00000000e+00 
        </DataArray>
        <DataArray type="Float64" Name="p">
          -6.35610554e+03 -6.31557447e+03 -6.27504341e+03 -6.23451234e+03 -6.36606902e+03 -6.32680050e+03 -6.28753198e+03 -6.24826347e+03 -6.37603249e+03 -6.33802653e+03 -6.30002056e+03 -6.26201460e+03 -6.38599597e+03 -6.34925255e+03 -6.31250914e+03 -6.27576572e+03 
        </DataArray>
      </PointData>
    </Piece>
    <Piece NumberOfPoints="16" NumberOfCells="9">
      <Points>
        <DataArray type="Float64" NumberOfComponents="3" format="ascii">
          5.00000000e+00 0.00000000e+00 0.00000000e+00 
5.83333349e+00 0.00000000e+00 0.00000000e+00 
6.66666651e+00 0.00000000e+00 0.00000000e+00 
7.50000000e+00 0.00000000e+00 0.00000000e+00 
5.00000000e+00 3.33333343e-01 0.00000000e+00 
5.83333349e+00 3.33333343e-01 0.00000000e+00 
6.66666651e+00 3.33333343e-01 0.00000000e+00 
7.50000000e+00 3.33333343e-01 0.00000000e+00 
5.00000000e+00 6.66666687e-01 0.00000000e+00 
5.83333349e+00 6.66666687e-01 0.00000000e+00 
6.66666651e+00 6.66666687e-01 0.00000000e+00 
7.50000000e+00 6.66666687e-01 0.00000000e+00 
5.00000000e+00 1.00000000e+00 0.00000000e+00 
5.83333349e+00 1.00000000e+00 0.00000000e+00 
6.66666651e+00 1.00000000e+00 0.00000000e+00 
7.50000000e+00 1.00000000e+00 0.00000000e+00 

        </DataArray>
      </Points>
      <Cells>
        <DataArray type="Int32" Name="connectivity" format="ascii">
0 1 5 4
4 5 9 8
8 9 13 12
1 2 6 5
5 6 10 9
9 10 14 13
2 3 7 6
6 7 11 10
10 11 15 14

        </DataArray>
        <DataArray type="Int32" Name="offsets" format="ascii">
4 8 12 16 20 24 28 32 36 
        </DataArray>
        <DataArray type="UInt8" Name="types" format="ascii">
9 9 9 9 9 9 9 9 9 
        </DataArray>
      </Cells>
      <PointData>
        <DataArray type="Float64" Name="u">