<?xml version="1.0"?>
<VTKFile type="UnstructuredGrid" version="0.1" byte_order="LittleEndian">
  <UnstructuredGrid>
    <Piece NumberOfPoints="16" NumberOfCells="9">
      <Points>
        <DataArray type="Float64" NumberOfComponents="3" format="ascii">
          0.00000000e+00 3.00000000e+00 0.00000000e+00 
8.33333313e-01 3.00000000e+00 0.00000000e+00 
1.66666663e+00 3.00000000e+00 0.00000000e+00 
2.50000000e+00 3.00000000e+00 0.00000000e+00 
0.00000000e+00 3.33333325e+00 0.00000000e+00 
8.33333313e-01 3.33333325e+00 0.00000000e+00 
1.66666663e+00 3.33333325e+00 0.00000000e+00 
2.50000000e+00 3.33333325e+00 0.00000000e+00 
0.00000000e+00 3.66666675e+00 0.00000000e+00 
8.33333313e-01 3.66666675e+00 0.00000000e+00 
1.66666663e+00 3.66666675e+00 0.00000000e+00 
2.50000000e+00 3.66666675e+00 0.00000000e+00 
0.00000000e+00 4.00000000e+00 0.00000000e+00 
8.33333313e-01 4.00000000e+00 0.00000000e+00 
1.66666663e+00 4.00000000e+00 0.00000000e+00 
2.50000000e+00 4.00000000e+00 0.00000000e+00 

        </DataArray>
      </Points>
      <Cells>
        <DataArray type="Int32" Name="connectivity" format="ascii">
0 1 5 4
4 5 9 8
8 9 13 12
1 2 6 5
5 6 10 9
9 10 14 13
2 3 7 6
6 7 11 10
10 11 15 14

        </DataArray>
        <DataArray type="Int32" Name="offsets" format="ascii">
4 8 12 16 20 24 28 32 36 
        </DataArray>
        <DataArray type="UInt8" Name="types" format="ascii">
9 9 9 9 9 9 9 9 9 
        </DataArray>
      </Cells>
      <PointData>
        <DataArray type="Float64" Name="u">
          0.00000000e+00 0.00000000e+00 0.00000000e+00 0.00000000e+00 8.88888889e+01 8.66660581e+01 8.71045234e+01 8.08323785e+01 1.55555556e+02 1.52856137e+02 1.53639900e+02 1.47692353e+02 2.00000000e+02 1.97540792e+02 1.98365772e+02 1.93666906e+02 
        </DataArray>
        <DataArray type="Float64" Name="v">
          0.00000000e+00 0.00000000e+00 0.00000000e+00 0.00000000e+00 0.00000000e+00 7.28048178e-01 1.67864061e+00 1.54684050e+00 0.00000000e+00 6.77670133e-01 1.83226525e+00 3.04881216e+00 0.00000000e+00 1.78821204e+00 3.68652872e+00 5.21267047e+00 
        </DataArray>
        <DataArray type="Float64" Name="p">
          -2.15021699e+03 -3.18751500e+03 -4.22481301e+03 -5.26211102e+03 -2.18823340e+03 -3.23098365e+03 -4.27373390e+03 -5.31648415e+03 -2.22624980e+03 -3.27445229e+03 -4.32265479e+03 -5.37085728e+03 -2.26426621e+03 -3.31792094e+03 -4.37157567e+03 -5.42523040e+03 
        </DataArray>
      </PointData>
    </Piece>
    <Piece NumberOfPoints="16" NumberOfCells="9">
      <Points>
        <DataArray type="Float64" NumberOfComponents="3" format="ascii">
          0.00000000e+00 4.00000000e+00 0.00000000e+00 
8.33333313e-01 4.00000000e+00 0.00000000e+00 
1.66666663e+00 4.00000000e+00 0.00000000e+00 
2.50000000e+00 4.00000000e+00 0.00000000e+00 
0.00000000e+00 4.33333349e+00 0.00000000e+00 
8.33333313e-01 4.33333349e+00 0.00000000e+00 
1.66666663e+00 4.33333349e+00 0.00000000e+00 
2.50000000e+00 4.33333349e+00 0.00000000e+00 
0.00000000e+00 4.66666651e+00 0.00000000e+00 
8.33333313e-01 4.66666651e+00 0.00000000e+00 
1.66666663e+00 4.66666651e+00 0.00000000e+00 
2.50000000e+00 4.66666651e+00 0.00000000e+00 
0.00000000e+00 5.00000000e+00 0.00000000e+00 
8.33333313e-01 5.00000000e+00 0.00000000e+00 
1.66666663e+00 5.00000000e+00 0.00000000e+00 
2.50000000e+00 5.00000000e+00 0.00000000e+00 

        </DataArray>
      </Points>
      <Cells>
        <DataArray type="Int32" Name="connectivity" format="ascii">
0 1 5 4
4 5 9 8
8 9 13 12
1 2 6 5
5 6 10 9
9 10 14 13
2 3 7 6
6 7 11 10
10 11 15 14

        </DataArray>
        <DataArray type="Int32" Name="offsets" format="ascii">
4 8 12 16 20 24 28 32 36 
        </DataArray>
        <DataArray type="UInt8" Name="types" format="ascii">
9 9 9 9 9 9 9 9 9 
        </DataArray>
      </Cells>
      <PointData>
        <DataArray type="Float64" Name="u">
          2.00000000e+02 1.97540792e+02 1.98365772e+02 1.93666906e+02 2.22222222e+02 2.20691306e+02 2.21407972e+02 2.19022430e+02 2.22222222e+02 2.21912220e+02 2.22756060e+02 2.22741406e+02 2.00000000e+02 2.00922252e+02 2.01934192e+02 2.04409969e+02 
        </DataArray>
        <DataArray type="Float64" Name="v">
          0.00000000e+00 1.78821204e+00 3.68652872e+00 5.21267047e+00 0.00000000e+00 2.45229153e+00 4.46401548e+00 6.55992915e+00 0.00000000e+00 2.44505162e+00 4.63145910e+00 6.49333024e+00 0.00000000e+00 2.30598732e+00 4.04343232e+00 6.57461305e+00 
        </DataArray>
        <DataArray type="Float64" Name="p">
          -2.26664825e+03 -3.33977312e+03 -4.41289799e+03 -5.48602286e+03 -2.48432783e+03 -3.54339598e+03 -4.60246413e+03 -5.66153228e+03 -2.70200740e+03 -3.74701883e+03 -4.79203026e+03 -5.83704169e+03 -2.91968697e+03 -3.95064169e+03 -4.98159640e+03 -6.01255111e+03 
        </DataArray>
      </PointData>
    </Piece>
    <Piece NumberOfPoints="16" NumberOfCells="9">
      <Points>
        <DataArray type="Float64" NumberOfComponents="3" format="ascii">
          0.00000000e+00 5.00000000e+00 0.00000000e+00 
8.33333313e-01 5.00000000e+00 0.00000000e+00 
1.66666663e+00 5.00000000e+00 0.00000000e+00 
2.50000000e+00 5.00000000e+00 0.00000000e+00 
0.00000000e+00 5.33333349e+00 0.00000000e+00 
8.33333313e-01 5.33333349e+00 0.00000000e+00 
1.66666663e+00 5.33333349e+00 0.00000000e+00 
2.50000000e+00 5.33333349e+00 0.00000000e+00 
0.00000000e+00 5.66666651e+00 0.00000000e+00 
8.33333313e-01 5.66666651e+00 0.00000000e+00 
1.66666663e+00 5.66666651e+00 0.00000000e+00 
2.50000000e+00 5.66666651e+00 0.00000000e+00 
0.00000000e+00 6.00000000e+00 0.00000000e+00 
8.33333313e-01 6.00000000e+00 0.00000000e+00 
1.66666663e+00 6.00000000e+00 0.00000000e+00 
2.50000000e+00 6.00000000e+00 0.00000000e+00 

        </DataArray>
      </Points>
      <Cells>
        <DataArray type="Int32" Name="connectivity" format="ascii">
0 1 5 4
4 5 9 8
8 9 13 12
1 2 6 5
5 6 10 9
9 10 14 13
2 3 7 6
6 7 11 10
10 11 15 14

        </DataArray>
        <DataArray type="Int32" Name="offsets" format="ascii">
4 8 12 16 20 24 28 32 36 
        </DataArray>
        <DataArray type="UInt8" Name="types" format="ascii">
9 9 9 9 9 9 9 9 9 
        </DataArray>
      </Cells>
      <PointData>
        <DataArray type="Float64" Name="u">
          2.00000000e+02 2.00922252e+02 2.01934192e+02 2.04409969e+02 1.55555556e+02 1.58088191e+02 1.58430282e+02 1.63701110e+02 8.88888889e+01 9.23788392e+01 9.15598395e+01 1.00625739e+02 0.00000000e+00 0.00000000e+00 0.00000000e+00 0.00000000e+00 
        </DataArray>
        <DataArray type="Float64" Name="v">
          0.00000000e+00 2.30598732e+00 4.04343232e+00 6.57461305e+00 0.00000000e+00 1.00382819e+00 2.31437398e+00 4.20109419e+00 0.00000000e+00 1.21770437e+00 1.76346441e+00 4.24652095e+00 0.00000000e+00 0.00000000e+00 0.00000000e+00 0.00000000e+00 
        </DataArray>
        <DataArray type="Float64" Name="p">
          -2.95859184e+03 -3.99122325e+03 -5.02385466e+03 -6.05648607e+03 -2.98850420e+03 -4.04199943e+03 -5.09549466e+03 -6.14898990e+03 -3.01841656e+03 -4.09277562e+03 -5.16713467e+03 -6.24149373e+03 -3.04832892e+03 -4.14355180e+03 -5.23877468e+03 -6.33399756e+03 
        </DataArray>
      </PointData>
    </Piece>
    <Piece NumberOfPoints="16" NumberOfCells="9">
      <Points>
        <DataArray type="Float64" NumberOfComponents="3" format="ascii">
          2.50000000e+00 0.00000000e+00 0.00000000e+00 
3.33333325e+00 0.00000000e+00 0.00000000e+00 
4.16666651e+00 0.00000000e+00 0.00000000e+00 
5.00000000e+00 0.00000000e+00 0.00000000e+00 
2.50000000e+00 3.33333343e-01 0.00000000e+00 
3.33333325e+00 3.33333343e-01 0.00000000e+00 
4.16666651e+00 3.33333343e-01 0.00000000e+00 
5.00000000e+00 3.33333343e-01 0.00000000e+00 
2.50000000e+00 6.66666687e-01 0.00000000e+00 
3.33333325e+00 6.66666687e-01 0.00000000e+00 
4.16666651e+00 6.66666687e-01 0.00000000e+00 
5.00000000e+00 6.66666687e-01 0.00000000e+00 
2.50000000e+00 1.00000000e+00 0.00000000e+00 
3.33333325e+00 1.00000000e+00 0.00000000e+00 
4.16666651e+00 1.00000000e+00 0.00000000e+00 
5.00000000e+00 1.00000000e+00 0.00000000e+00 

        </DataArray>
      </Points>
      <Cells>
        <DataArray type="Int32" Name="connectivity" format="ascii">
0 1 5 4
4 5 9 8
8 9 13 12
1 2 6 5
5 6 10 9
9 10 14 13
2 3 7 6
6 7 11 10
10 11 15 14

        </DataArray>
        <DataArray type="Int32" Name="offsets" format="ascii">
4 8 12 16 20 24 28 32 36 
        </DataArray>
        <DataArray type="UInt8" Name="types" format="ascii">
9 9 9 9 9 9 9 9 9 
        </DataArray>
      </Cells>
      <PointData>
        <DataArray type="Float64" Name="u">
          0.00000000e+00 0.00000000e+00 0.00000000e+00 0.00000000e+00 0.00000000e+00 -2.09085672e+00 -3.76970156e+00 -6.63512843e+00 0.00000000e+00 -3.79450833e+00 -6.98524411e+00 -1.15859165e+01 0.00000000e+00 -5.09976458e+00 -9.29862485e+00 -1.46932056e+01 
        </DataArray>
        <DataArray type="Float64" Name="v">
          0.00000000e+00 0.00000000e+00 0.00000000e+00 0.00000000e+00 0.00000000e+00 6.23967337e-01 6.80655116e-01 4.48684416e-01 0.00000000e+00 1.92503657e+00 1.93696590e+00 1.29454446e+00 0.00000000e+00 4.30505565e+00 4.03299564e+00 2.72838228e+00 
        </DataArray>
        <DataArray type="Float64" Name="p">
          -4.67827573e+03 -4.66002296e+03 -4.64177019e+03 -4.62351742e+03 -4.66968475e+03 -4.65137918e+03 -4.63307362e+03 -4.61476805e+03 -4.66109377e+03 -4.64273541e+03 -4.62437704e+03 -4.60601868e+03 -4.65250279e+03 -4.63409163e+03 -4.61568047e+03 -4.59726931e+03 
        </DataArray>
      </PointData>
    </Piece>
    <Piece NumberOfPoints="16" NumberOfCells="9">
      <Points>
        <DataArray type="Float64" NumberOfComponents="3" format="ascii">
          2.50000000e+00 1.00000000e+00 0.00000000e+00 
3.33333325e+00 1.00000000e+00 0.00000000e+00 
4.16666651e+00 1.00000000e+00 0.00000000e+00 
5.00000000e+00 1.00000000e+00 0.00000000e+00 
2.50000000e+00 1.33333337e+00 0.00000000e+00 
3.33333325e+00 1.33333337e+00 0.00000000e+00 
4.16666651e+00 1.33333337e+00 0.00000000e+00 
5.00000000e+00 1.33333337e+00 0.00000000e+00 
2.50000000e+00 1.66666663e+00 0.00000000e+00 
3.33333325e+00 1.66666663e+00 0.00000000e+00 
4.16666651e+00 1.66666663e+00 0.00000000e+00 
5.00000000e+00 1.66666663e+00 0.00000000e+00 
2.50000000e+00 2.00000000e+00 0.00000000e+00 
3.33333325e+00 2.00000000e+00 0.00000000e+00 
4.16666651e+00 2.00000000e+00 0.00000000e+00 
5.00000000e+00 2.00000000e+00 0.00000000e+00 

        </DataArray>
      </Points>
      <Cells>
        <DataArray type="Int32" Name="connectivity" format="ascii">
0 1 5 4
4 5 9 8
8 9 13 12
1 2 6 5
5 6 10 9
9 10 14 13
2 3 7 6
6 7 11 10
10 11 15 14

        </DataArray>
        <DataArray type="Int32" Name="offsets" format="ascii">
4 8 12 16 20 24 28 32 36 
        </DataArray>
        <DataArray type="UInt8" Name="types" format="ascii">
9 9 9 9 9 9 9 9 9 
        </DataArray>
      </Cells>
      <PointData>
        <DataArray type="Float64" Name="u">
          0.00000000e+00 -5.09976458e+00 -9.29862485e+00 -1.46932056e+01 0.00000000e+00 -5.98076072e+00 -1.04281773e+01 -1.57521797e+01 0.00000000e+00 -6.22250306e+00 -9.95297161e+00 -1.41574060e+01 0.00000000e+00 -5.36006741e+00 -7.20195200e+00 -9.16879868e+00 
        </DataArray>
        <DataArray type="Float64" Name="v">
          0.00000000e+00 4.30505565e+00 4.03299564e+00 2.72838228e+00 0.00000000e+00 7.37516394e+00 6.37194710e+00 4.09959192e+00 0.00000000e+00 9.91087191e+00 8.18994149e+00 4.96965125e+00 0.00000000e+00 1.28982167e+01 9.74344130e+00 5.25386684e+00 
        </DataArray>
        <DataArray type="Float64" Name="p">
          -4.64088462e+03 -4.62762563e+03 -4.61436665e+03 -4.60110766e+03 -4.69692154e+03 -4.67349918e+03 -4.65007682e+03 -4.62665446e+03 -4.75295845e+03 -4.71937272e+03 -4.68578698e+03 -4.65220125e+03 -4.80899536e+03 -4.76524626e+03 -4.72149715e+03 -4.67774805e+03 
        </DataArray>
      </PointData>
    </Piece>
    <Piece NumberOfPoints="16" NumberOfCells="9">
      <Points>
        <DataArray type="Float64" NumberOfComponents="3" format="ascii">
          2.50000000e+00 2.00000000e+00 0.00000000e+00 
3.33333325e+00 2.00000000e+00 0.00000000e+00 
4.16666651e+00 2.00000000e+00 0.00000000e+00 
5.00000000e+00 2.00000000e+00 0.00000000e+00 
2.50000000e+00 2.33333325e+00 0.00000000e+00 
3.33333325e+00 2.33333325e+00 0.00000000e+00 
4.16666651e+00 2.33333325e+00 0.00000000e+00 
5.00000000e+00 2.33333325e+00 0.00000000e+00 
2.50000000e+00 2.66666675e+00 0.00000000e+00 
3.33333325e+00 2.66666675e+00 0.00000000e+00 
4.16666651e+00 2.66666675e+00 0.00000000e+00 
5.00000000e+00 2.66666675e+00 0.00000000e+00 
2.50000000e+00 3.00000000e+00 0.00000000e+00 
3.33333325e+00 3.00000000e+00 0.00000000e+00 
4.16666651e+00 3.00000000e+00 0.00000000e+00 
5.00000000e+00 3.00000000e+00 0.00000000e+00 

        </DataArray>
      </Points>
      <Cells>
        <DataArray type="Int32" Name="connectivity" format="ascii">
0 1 5 4
4 5 9 8
8 9 13 12
1 2 6 5
5 6 10 9
9 10 14 13
2 3 7 6
6 7 11 10
10 11 15 14

        </DataArray>
        <DataArray type="Int32" Name="offsets" format="ascii">
4 8 12 16 20 24 28 32 36 
        </DataArray>
        <DataArray type="UInt8" Name="types" format="ascii">
9 9 9 9 9 9 9 9 9 
        </DataArray>
      </Cells>
      <PointData>
        <DataArray type="Float64" Name="u">
          0.00000000e+00 -5.36006741e+00 -7.20195200e+00 -9.16879868e+00 0.00000000e+00 -2.40556520e+00 -1.51920267e+00 1.39590910e+00 0.00000000e+00 7.11205319e+00 1.05637273e+01 1.85020508e+01 0.00000000e+00 3.53186982e+01 3.54274261e+01 4.54932044e+01 
        </DataArray>
        <DataArray type="Float64" Name="v">
          0.00000000e+00 1.28982167e+01 9.74344130e+00 5.25386684e+00 0.00000000e+00 1.49881967e+01 9.25405311e+00 4.01824160e+00 0.00000000e+00 1.35294181e+01 8.44205512e+00 3.09176966e+00 0.00000000e+00 6.12319479e+00 4.51610776e+00 2.85361896e+00 
        </DataArray>
        <DataArray type="Float64" Name="p">
          -4.78847426e+03 -4.77330088e+03 -4.75812751e+03 -4.74295413e+03 -5.00199108e+03 -4.88525189e+03 -4.76851269e+03 -4.65177349e+03 -5.21550791e+03 -4.99720289e+03 -4.77889787e+03 -4.56059285e+03 -5.42902473e+03 -5.10915389e+03 -4.78928305e+03 -4.46941221e+03 
        </DataArray>
      </PointData>
    </Piece>
    <Piece NumberOfPoints="16" NumberOfCells="9">
      <Points>
        <DataArray type="Float64" NumberOfComponents="3" format="ascii">
          2.50000000e+00 3.00000000e+00 0.00000000e+00 
3.33333325e+00 3.00000000e+00 0.00000000e+00 
4.16666651e+00 3.00000000e+00 0.00000000e+00 
5.00000000e+00 3.00000000e+00 0.00000000e+00 
2.50000000e+00 3.33333325e+00 0.00000000e+00 
3.33333325e+00 3.33333325e+00 0.00000000e+00 
4.16666651e+00 3.33333325e+00 0.00000000e+00 
5.00000000e+00 3.33333325e+00 0.00000000e+00 
2.50000000e+00 3.66666675e+00 0.00000000e+00 
3.33333325e+00 3.66666675e+00 0.00000000e+00 
4.16666651e+00 3.66666675e+00 0.00000000e+00 
5.00000000e+00 3.66666675e+00 0.00000000e+00 
2.50000000e+00 4.00000000e+00 0.00000000e+00 
3.33333325e+00 4.00000000e+00 0.00000000e+00 
4.16666651e+00 4.00000000e+00 0.00000000e+00 
5.00000000e+00 4.00000000e+00 0.00000000e+00 

        </DataArray>
      </Points>
      <Cells>
        <DataArray type="Int32" Name="connectivity" format="ascii">
0 1 5 4
4 5 9 8
8 9 13 12
1 2 6 5
5 6 10 9
9 10 14 13
2 3 7 6
6 7 11 10
10 11 15 14

        </DataArray>
        <DataArray type="Int32" Name="offsets" format="ascii">
4 8 12 16 20 24 28 32 36 
        </DataArray>
        <DataArray type="UInt8" Name="types" format="ascii">
9 9 9 9 9 9 9 9 9 
        </DataArray>
      </Cells>
      <PointData>
        <DataArray type="Float64" Name="u">
          0.00000000e+00 3.53186982e+01 3.54274261e+01 4.54932044e+01 8.08323785e+01 8.21830859e+01 8.00513592e+01 7.90353578e+01 1.47692353e+02 1.39871449e+02 1.33736502e+02 1.24603099e+02 1.93666906e+02 1.85184729e+02 1.79412264e+02 1.67531898e+02 
        </DataArray>
        <DataArray type="Float64" Name="v">
          0.00000000e+00 6.12319479e+00 4.51610776e+00 2.85361896e+00 1.54684050e+00 4.94957637e-01 3.79667657e+00 6.88597509e+00 3.04881216e+00 7.01929519e-01 2.90828917e+00 8.02098419e+00 5.21267047e+00 4.93075460e+00 8.11463016e+00 1.25429531e+01 
        </DataArray>
        <DataArray type="Float64" Name="p">
          -5.46286272e+03 -5.05604055e+03 -4.64921839e+03 -4.24239622e+03 -5.24065581e+03 -4.99309246e+03 -4.74552912e+03 -4.49796578e+03 -5.01844890e+03 -4.93014438e+03 -4.84183986e+03 -4.75353533e+03 -4.79624199e+03 -4.86719629e+03 -4.93815059e+03 -5.00910489e+03 
        </DataArray>
      </PointData>
    </Piece>
    <Piece NumberOfPoints="16" NumberOfCells="9">
      <Points>
        <DataArray type="Float64" NumberOfComponents="3" format="ascii">
          2.50000000e+00 4.00000000e+00 0.00000000e+00 
3.33333325e+00 4.00000000e+00 0.00000000e+00 
4.16666651e+00 4.00000000e+00 0.00000000e+00 
5.00000000e+00 4.00000000e+00 0.00000000e+00 
2.50000000e+00 4.33333349e+00 0.00000000e+00 
3.33333325e+00 4.33333349e+00 0.00000000e+00 
4.16666651e+00 4.33333349e+00 0.00000000e+00 
5.00000000e+00 4.33333349e+00 0.00000000e+00 
2.50000000e+00 4.66666651e+00 0.00000000e+00 
3.33333325e+00 4.66666651e+00 0.00000000e+00 
4.16666651e+00 4.66666651e+00 0.00000000e+00 
5.00000000e+00 4.66666651e+00 0.00000000e+00 
2.50000000e+00 5.00000000e+00 0.00000000e+00 
3.33333325e+00 5.00000000e+00 0.00000000e+00 
4.16666651e+00 5.00000000e+00 0.00000000e+00 
5.00000000e+00 5.00000000e+00 0.00000000e+00 

        </DataArray>
      </Points>
      <Cells>
        <DataArray type="Int32" Name="connectivity" format="ascii">
0 1 5 4
4 5 9 8
8 9 13 12
1 2 6 5
5 6 10 9
9 10 14 13
2 3 7 6
6 7 11 10
10 11 15 14

        </DataArray>
        <DataArray type="Int32" Name="offsets" format="ascii">
4 8 12 16 20 24 28 32 36 
        </DataArray>
        <DataArray type="UInt8" Name="types" format="ascii">
9 9 9 9 9 9 9 9 9 
        </DataArray>
      </Cells>
      <PointData>
        <DataArray type="Float64" Name="u">
          1.93666906e+02 1.85184729e+02 1.79412264e+02 1.67531898e+02 2.19022430e+02 2.11097842e+02 2.07187923e+02 1.96735635e+02 2.22741406e+02 2.16513475e+02 2.15539137e+02 2.08222710e+02 2.04409969e+02 1.99960623e+02 2.03333518e+02 1.99385136e+02 
        </DataArray>
        <DataArray type="Float64" Name="v">
          5.21267047e+00 4.93075460e+00 8.11463016e+00 1.25429531e+01 6.55992915e+00 9.45871226e+00 1.23431821e+01 1.60626592e+01 6.49333024e+00 1.00819331e+01 1.43309775e+01 1.83675481e+01 6.57461305e+00 1.29564542e+01 1.63771188e+01 1.89469723e+01 
        </DataArray>
        <DataArray type="Float64" Name="p">
          -4.70401026e+03 -4.85731990e+03 -5.01062955e+03 -5.16393920e+03 -4.98424611e+03 -5.17633558e+03 -5.36842504e+03 -5.56051450e+03 -5.26448197e+03 -5.49535125e+03 -5.72622053e+03 -5.95708980e+03 -5.54471783e+03 -5.81436692e+03 -6.08401602e+03 -6.35366511e+03 
        </DataArray>
      </PointData>
    </Piece>
    <Piece NumberOfPoints="16" NumberOfCells="9">
      <Points>
        <DataArray type="Float64" NumberOfComponents="3" format="ascii">
          2.50000000e+00 5.00000000e+00 0.00000000e+00 
3.33333325e+00 5.00000000e+00 0.00000000e+00 
4.16666651e+00 5.00000000e+00 0.00000000e+00 
5.00000000e+00 5.00000000e+00 0.00000000e+00 
2.50000000e+00 5.33333349e+00 0.00000000e+00 
3.33333325e+00 5.33333349e+00 0.00000000e+00 
4.16666651e+00 5.33333349e+00 0.00000000e+00 
5.00000000e+00 5.33333349e+00 0.00000000e+00 
2.50000000e+00 5.66666651e+00 0.00000000e+00 
3.33333325e+00 5.66666651e+00 0.00000000e+00 
4.16666651e+00 5.66666651e+00 0.00000000e+00 
5.00000000e+00 5.66666651e+00 0.00000000e+00 
2.50000000e+00 6.00000000e+00 0.00000000e+00 
3.33333325e+00 6.00000000e+00 0.00000000e+00 
4.16666651e+00 6.00000000e+00 0.00000000e+00 
5.00000000e+00 6.00000000e+00 0.00000000e+00 

        </DataArray>
      </Points>
      <Cells>
        <DataArray type="Int32" Name="connectivity" format="ascii">
0 1 5 4
4 5 9 8
8 9 13 12
1 2 6 5
5 6 10 9
9 10 14 13
2 3 7 6
6 7 11 10
10 11 15 14

        </DataArray>
        <DataArray type="Int32" Name="offsets" format="ascii">
4 8 12 16 20 24 28 32 36 
        </DataArray>
        <DataArray type="UInt8" Name="types" format="ascii">
9 9 9 9 9 9 9 9 9 
        </DataArray>
      </Cells>
      <PointData>
        <DataArray type="Float64" Name="u">
          2.04409969e+02 1.99960623e+02 2.03333518e+02 1.99385136e+02 1.63701110e+02 1.63504833e+02 1.69493318e+02 1.72546127e+02 1.00625739e+02 1.08299880e+02 1.19663361e+02 1.31454897e+02 0.00000000e+00 5.29804571e+01 6.48781851e+01 8.87693910e+01 
        </DataArray>
        <DataArray type="Float64" Name="v">
          6.57461305e+00 1.29564542e+01 1.63771188e+01 1.89469723e+01 4.20109419e+00 1.26266042e+01 1.58287049e+01 1.59179618e+01 4.24652095e+00 1.25351154e+01 1.41967169e+01 1.37995111e+01 0.00000000e+00 1.04061459e+00 6.07993059e+00 1.10538344e+01 
        </DataArray>
        <DataArray type="Float64" Name="p">
          -5.71048551e+03 -5.93975926e+03 -6.16903301e+03 -6.39830675e+03 -6.32669182e+03 -6.30503799e+03 -6.28338417e+03 -6.26173034e+03 -6.94289812e+03 -6.67031672e+03 -6.39773533e+03 -6.12515394e+03 -7.55910442e+03 -7.03559546e+03 -6.51208649e+03 -5.98857753e+03 
        </DataArray>
      </PointData>
    </Piece>
    <Piece NumberOfPoints="16" NumberOfCells="9">
      <Points>
        <DataArray type="Float64" NumberOfComponents="3" format="ascii">
          2.50000000e+00 6.00000000e+00 0.00000000e+00 
3.33333325e+00 6.00000000e+00 0.00000000e+00 
4.16666651e+00 6.00000000e+00 0.00000000e+00 
5.00000000e+00 6.00000000e+00 0.00000000e+00 
2.50000000e+00 6.33333349e+00 0.00000000e+00 
3.33333325e+00 6.33333349e+00 0.00000000e+00 
4.16666651e+00 6.33333349e+00 0.00000000e+00 
5.00000000e+00 6.33333349e+00 0.00000000e+00 
2.50000000e+00 6.66666651e+00 0.00000000e+00 
3.33333325e+00 6.66666651e+00 0.00000000e+00 
4.16666651e+00 6.66666651e+00 0.00000000e+00 
5.00000000e+00 6.66666651e+00 0.00000000e+00 
2.50000000e+00 7.00000000e+00 0.00000000e+00 
3.33333325e+00 7.00000000e+00 0.00000000e+00 
4.16666651e+00 7.00000000e+00 0.00000000e+00 
5.00000000e+00 7.00000000e+00 0.00000000e+00 

        </DataArray>
      </Points>
      <Cells>
        <DataArray type="Int32" Name="connectivity" format="ascii">
0 1 5 4
4 5 9 8
8 9 13 12
1 2 6 5
5 6 10 9
9 10 14 13
2 3 7 6
6 7 11 10
10 11 15 14

        </DataArray>
        <DataArray type="Int32" Name="offsets" format="ascii">
4 8 12 16 20 24 28 32 36 
        </DataArray>
        <DataArray type="UInt8" Name="types" format="ascii">
9 9 9 9 9 9 9 9 9 
        </DataArray>
      </Cells>
      <PointData>
        <DataArray type="Float64" Name="u">
          0.00000000e+00 5.29804571e+01 6.48781851e+01 8.87693910e+01 0.00000000e+00 1.39402596e+01 2.62663188e+01 4.83678392e+01 0.00000000e+00 -5.05605599e-02 6.39937660e+00 1.97988750e+01 0.00000000e+00 -4.80328678e+00 -3.66801547e+00 -3.94082346e-01 
        </DataArray>
        <DataArray type="Float64" Name="v">
          0.00000000e+00 1.04061459e+00 6.07993059e+00 1.10538344e+01 0.00000000e+00 -1.22587169e+01 -3.82627179e+00 6.29843859e+00 0.00000000e+00 -1.65269383e+01 -8.24404651e+00 1.65121064e+00 0.00000000e+00 -1.53826510e+01 -1.15962986e+01 -3.79786173e+00 
        </DataArray>
        <DataArray type="Float64" Name="p">
          -7.40917241e+03 -6.97699990e+03 -6.54482738e+03 -6.11265487e+03 -7.13606704e+03 -6.85425798e+03 -6.57244891e+03 -6.29063984e+03 -6.86296168e+03 -6.73151606e+03 -6.60007043e+03 -6.46862481e+03 -6.58985632e+03 -6.60877414e+03 -6.62769196e+03 -6.64660978e+03 
        </DataArray>
      </PointData>
    </Piece>
    <Piece NumberOfPoints="16" NumberOfCells="9">
      <Points>
        <DataArray type="Float64" NumberOfComponents="3" format="ascii">
          2.50000000e+00 7.00000000e+00 0.00000000e+00 
3.33333325e+00 7.00000000e+00 0.00000000e+00 
4.16666651e+00 7.00000000e+00 0.00000000e+00 
5.00000000e+00 7.00000000e+00 0.00000000e+00 
2.50000000e+00 7.33333349e+00 0.00000000e+00 
3.33333325e+00 7.33333349e+00 0.00000000e+00 
4.16666651e+00 7.33333349e+00 0.00000000e+00 
5.00000000e+00 7.33333349e+00 0.00000000e+00 
2.50000000e+00 7.66666651e+00 0.00000000e+00 
3.33333325e+00 7.66666651e+00 0.00000000e+00 
4.16666651e+00 7.66666651e+00 0.00000000e+00 
5.00000000e+00 7.66666651e+00 0.00000000e+00 
2.50000000e+00 8.00000000e+00 0.00000000e+00 
3.33333325e+00 8.00000000e+00 0.00000000e+00 
4.16666651e+00 8.00000000e+00 0.00000000e+00 
5.00000000e+00 8.00000000e+00 0.00000000e+00 

        </DataArray>
      </Points>
      <Cells>
        <DataArray type="Int32" Name="connectivity" format="ascii">
0 1 5 4
4 5 9 8
8 9 13 12
1 2 6 5
5 6 10 9
9 10 14 13
2 3 7 6
6 7 11 10
10 11 15 14

        </DataArray>
        <DataArray type="Int32" Name="offsets" format="ascii">
4 8 12 16 20 24 28 32 36 
        </DataArray>
        <DataArray type="UInt8" Name="types" format="ascii">
9 9 9 9 9 9 9 9 9 
        </DataArray>
      </Cells>
      <PointData>
        <DataArray type="Float64" Name="u">
          0.00000000e+00 -4.80328678e+00 -3.66801547e+00 -3.94082346e-01 0.00000000e+00 -6.85557851e+00 -9.73288162e+00 -1.22479853e+01 0.00000000e+00 -7.35691749e+00 -1.23439340e+01 -1.84923392e+01 0.00000000e+00 -6.77860791e+00 -1.21824375e+01 -1.98119794e+01 
        </DataArray>
        <DataArray type="Float64" Name="v">
          0.00000000e+00 -1.53826510e+01 -1.15962986e+01 -3.79786173e+00 0.00000000e+00 -1.25942142e+01 -1.09269289e+01 -5.69459920e+00 0.00000000e+00 -9.73633002e+00 -8.99038698e+00 -5.64956262e+00 0.00000000e+00 -5.91586044e+00 -5.91277619e+00 -4.27798660e+00 
        </DataArray>
        <DataArray type="Float64" Name="p">
          -6.63049774e+03 -6.59821014e+03 -6.56592255e+03 -6.53363495e+03 -6.56351285e+03 -6.53284962e+03 -6.50218638e+03 -6.47152315e+03 -6.49652797e+03 -6.46748909e+03 -6.43845022e+03 -6.40941135e+03 -6.42954308e+03 -6.40212857e+03 -6.37471406e+03 -6.34729955e+03 
        </DataArray>
      </PointData>
    </Piece>
    <Piece NumberOfPoints="16" NumberOfCells="9">
      <Points>
        <DataArray type="Float64" NumberOfComponents="3" format="ascii">
          2.50000000e+00 8.00000000e+00 0.00000000e+00 
3.33333325e+00 8.00000000e+00 0.00000000e+00 
4.16666651e+00 8.00000000e+00 0.00000000e+00 
5.00000000e+00 8.00000000e+00 0.00000000e+00 
2.50000000e+00 8.33333302e+00 0.00000000e+00 
3.33333325e+00 8.33333302e+00 0.00000000e+00 
4.16666651e+00 8.33333302e+00 0.00000000e+00 
5.00000000e+00 8.33333302e+00 0.00000000e+00 
2.50000000e+00 8.66666698e+00 0.00000000e+00 
3.33333325e+00 8.66666698e+00 0.00000000e+00 
4.16666651e+00 8.66666698e+00 0.00000000e+00 
5.00000000e+00 8.66666698e+00 0.00000000e+00 
2.50000000e+00 9.00000000e+00 0.00000000e+00 
3.33333325e+00 9.00000000e+00 0.00000000e+00 
4.16666651e+00 9.00000000e+00 0.00000000e+00 
5.00000000e+00 9.00000000e+00 0.00000000e+00 

        </DataArray>
      </Points>
      <Cells>
        <DataArray type="Int32" Name="connectivity" format="ascii">
0 1 5 4
4 5 9 8
8 9 13 12
1 2 6 5
5 6 10 9
9 10 14 13
2 3 7 6
6 7 11 10
10 11 15 14

        </DataArray>
        <DataArray type="Int32" Name="offsets" format="ascii">
4 8 12 16 20 24 28 32 36 
        </DataArray>
        <DataArray type="UInt8" Name="types" format="ascii">
9 9 9 9 9 9 9 9 9 
        </DataArray>
      </Cells>
      <PointData>
        <DataArray type="Float64" Name="u">
          0.00000000e+00 -6.77860791e+00 -1.21824375e+01 -1.98119794e+01 0.00000000e+00 -5.29711847e+00 -9.66520289e+00 -1.67821623e+01 0.00000000e+00 -3.00247781e+00 -5.37183440e+00 -9.75042497e+00 0.00000000e+00 0.00000000e+00 0.00000000e+00 0.00000000e+00 
        </DataArray>
        <DataArray type="Float64" Name="v">
          0.00000000e+00 -5.91586044e+00 -5.91277619e+00 -4.27798660e+00 0.00000000e+00 -2.69664388e+00 -2.78857123e+00 -2.21263291e+00 0.00000000e+00 -9.16959417e-01 -9.87724602e-01 -8.82413070e-01 0.00000000e+00 0.00000000e+00 0.00000000e+00 0.00000000e+00 
        </DataArray>
        <DataArray type="Float64" Name="p">
          -6.44148571e+03 -6.40545067e+03 -6.36941563e+03 -6.33338059e+03 -6.45055848e+03 -6.41602492e+03 -6.38149135e+03 -6.34695779e+03 -6.45963126e+03 -6.42659917e+03 -6.39356708e+03 -6.36053499e+03 -6.46870404e+03 -6.43717342e+03 -6.40564281e+03 -6.37411219e+03 
        </DataArray>
      </PointData>
    </Piece>
    <Piece NumberOfPoints="16" NumberOfCells="9">
      <Points>
        <DataArray type="Float64" NumberOfComponents="3" format="ascii">
          5.00000000e+00 0.00000000e+00 0.00000000e+00 
5.83333349e+00 0.00000000e+00 0.00000000e+00 
6.66666651e+00 0.00000000e+00 0.00000000e+00 
7.50000000e+00 0.00000000e+00 0.00000000e+00 
5.00000000e+00 3.33333343e-01 0.00000000e+00 
5.83333349e+00 3.33333343e-01 0.00000000e+00 
6.66666651e+00 3.33333343e-01 0.00000000e+00 
7.50000000e+00 3.33333343e-01 0.00000000e+00 
5.00000000e+00 6.66666687e-01 0.00000000e+00 
5.83333349e+00 6.66666687e-01 0.00000000e+00 
6.66666651e+00 6.66666687e-01 0.00000000e+00 
7.50000000e+00 6.66666687e-01 0.00000000e+00 
5.00000000e+00 1.00000000e+00 0.00000000e+00 
5.83333349e+00 1.00000000e+00 0.00000000e+00 
6.66666651e+00 1.00000000e+00 0.00000000e+00 
7.50000000e+00 1.00000000e+00 0.00000000e+00 

        </DataArray>
      </Points>
      <Cells>
        <DataArray type="Int32" Name="connectivity" format="ascii">
0 1 5 4
4 5 9 8
8 9 13 12
1 2 6 5
5 6 10 9
9 10 14 13
2 3 7 6
6 7 11 10
10 11 15 14

        </DataArray>
        <DataArray type="Int32" Name="offsets" format="ascii">
4 8 12 16 20 24 28 32 36 
        </DataArray>
        <DataArray type="UInt8" Name="types" format="ascii">
9 9 9 9 9 9 9 9 9 
        </DataArray>
      </Cells>
      <PointData>
        <DataArray type="Float64" Name="u">