<?xml version="1.0"?>
<VTKFile type="UnstructuredGrid" version="0.1" byte_order="LittleEndian">
  <UnstructuredGrid>
    <Piece NumberOfPoints="16" NumberOfCells="9">
      <Points>
        <DataArray type="Float64" NumberOfComponents="3" format="ascii">
          0.00000000e+00 3.00000000e+00 0.00000000e+00 
8.33333313e-01 3.00000000e+00 0.00000000e+00 
1.66666663e+00 3.00000000e+00 0.00000000e+00 
2.50000000e+00 3.00000000e+00 0.00000000e+00 
0.00000000e+00 3.33333325e+00 0.00000000e+00 
8.33333313e-01 3.33333325e+00 0.00000000e+00 
1.66666663e+00 3.33333325e+00 0.00000000e+00 
2.50000000e+00 3.33333325e+00 0.00000000e+00 
0.00000000e+00 3.66666675e+00 0.00000000e+00 
8.33333313e-01 3.66666675e+00 0.00000000e+00 
1.66666663e+00 3.66666675e+00 0.00000000e+00 
2.50000000e+00 3.66666675e+00 0.00000000e+00 
0.00000000e+00 4.00000000e+00 0.00000000e+00 
8.33333313e-01 4.00000000e+00 0.00000000e+00 
1.66666663e+00 4.00000000e+00 0.00000000e+00 
2.50000000e+00 4.00000000e+00 0.00000000e+00 

        </DataArray>
      </Points>
      <Cells>
        <DataArray type="Int32" Name="connectivity" format="ascii">
0 1 5 4
4 5 9 8
8 9 13 12
1 2 6 5
5 6 10 9
9 10 14 13
2 3 7 6
6 7 11 10
10 11 15 14

        </DataArray>
        <DataArray type="Int32" Name="offsets" format="ascii">
4 8 12 16 20 24 28 32 36 
        </DataArray>
        <DataArray type="UInt8" Name="types" format="ascii">
9 9 9 9 9 9 9 9 9 
        </DataArray>
      </Cells>
      <PointData>
        <DataArray type="Float64" Name="u">
          0.00000000e+00 0.00000000e+00 0.00000000e+00 0.00000000e+00 8.88888889e+01 8.66021967e+01 8.70457269e+01 8.06163550e+01 1.55555556e+02 1.52818290e+02 1.53589075e+02 1.47571080e+02 2.00000000e+02 1.97532559e+02 1.98331941e+02 1.93608411e+02 
        </DataArray>
        <DataArray type="Float64" Name="v">
          0.00000000e+00 0.00000000e+00 0.00000000e+00 0.00000000e+00 0.00000000e+00 7.54655099e-01 1.71903847e+00 1.61938943e+00 0.00000000e+00 6.95233833e-01 1.86685254e+00 3.11503219e+00 0.00000000e+00 1.83021741e+00 3.75567522e+00 5.30736957e+00 
        </DataArray>
        <DataArray type="Float64" Name="p">
          -2.20064586e+03 -3.22141774e+03 -4.24218963e+03 -5.26296151e+03 -2.23940159e+03 -3.26582741e+03 -4.29225322e+03 -5.31867904e+03 -2.27815732e+03 -3.31023707e+03 -4.34231682e+03 -5.37439657e+03 -2.31691304e+03 -3.35464673e+03 -4.39238042e+03 -5.43011410e+03 
        </DataArray>
      </PointData>
    </Piece>
    <Piece NumberOfPoints="16" NumberOfCells="9">
      <Points>
        <DataArray type="Float64" NumberOfComponents="3" format="ascii">
          0.00000000e+00 4.00000000e+00 0.00000000e+00 
8.33333313e-01 4.00000000e+00 0.00000000e+00 
1.66666663e+00 4.00000000e+00 0.00000000e+00 
2.50000000e+00 4.00000000e+00 0.00000000e+00 
0.00000000e+00 4.33333349e+00 0.00000000e+00 
8.33333313e-01 4.33333349e+00 0.00000000e+00 
1.66666663e+00 4.33333349e+00 0.00000000e+00 
2.50000000e+00 4.33333349e+00 0.00000000e+00 
0.00000000e+00 4.66666651e+00 0.00000000e+00 
8.33333313e-01 4.66666651e+00 0.00000000e+00 
1.66666663e+00 4.66666651e+00 0.00000000e+00 
2.50000000e+00 4.66666651e+00 0.00000000e+00 
0.00000000e+00 5.00000000e+00 0.00000000e+00 
8.33333313e-01 5.00000000e+00 0.00000000e+00 
1.66666663e+00 5.00000000e+00 0.00000000e+00 
2.50000000e+00 5.00000000e+00 0.00000000e+00 

        </DataArray>
      </Points>
      <Cells>
        <DataArray type="Int32" Name="connectivity" format="ascii">
0 1 5 4
4 5 9 8
8 9 13 12
1 2 6 5
5 6 10 9
9 10 14 13
2 3 7 6
6 7 11 10
10 11 15 14

        </DataArray>
        <DataArray type="Int32" Name="offsets" format="ascii">
4 8 12 16 20 24 28 32 36 
        </DataArray>
        <DataArray type="UInt8" Name="types" format="ascii">
9 9 9 9 9 9 9 9 9 
        </DataArray>
      </Cells>
      <PointData>
        <DataArray type="Float64" Name="u">
          2.00000000e+02 1.97532559e+02 1.98331941e+02 1.93608411e+02 2.22222222e+02 2.20702763e+02 2.21393777e+02 2.19017823e+02 2.22222222e+02 2.21941670e+02 2.22759987e+02 2.22785634e+02 2.00000000e+02 2.00962108e+02 2.01944587e+02 2.04505269e+02 
        </DataArray>
        <DataArray type="Float64" Name="v">
          0.00000000e+00 1.83021741e+00 3.75567522e+00 5.30736957e+00 0.00000000e+00 2.49718130e+00 4.54062062e+00 6.65192014e+00 0.00000000e+00 2.48855593e+00 4.70507452e+00 6.58657100e+00 0.00000000e+00 2.34153693e+00 4.10465368e+00 6.65018809e+00 
        </DataArray>
        <DataArray type="Float64" Name="p">
          -2.31990661e+03 -3.37712080e+03 -4.43433499e+03 -5.49154918e+03 -2.54199779e+03 -3.58400924e+03 -4.62602068e+03 -5.66803213e+03 -2.76408897e+03 -3.79089767e+03 -4.81770637e+03 -5.84451507e+03 -2.98618016e+03 -3.99778611e+03 -5.00939206e+03 -6.02099802e+03 
        </DataArray>
      </PointData>
    </Piece>
    <Piece NumberOfPoints="16" NumberOfCells="9">
      <Points>
        <DataArray type="Float64" NumberOfComponents="3" format="ascii">
          0.00000000e+00 5.00000000e+00 0.00000000e+00 
8.33333313e-01 5.00000000e+00 0.00000000e+00 
1.66666663e+00 5.00000000e+00 0.00000000e+00 
2.50000000e+00 5.00000000e+00 0.00000000e+00 
0.00000000e+00 5.33333349e+00 0.00000000e+00 
8.33333313e-01 5.33333349e+00 0.00000000e+00 
1.66666663e+00 5.33333349e+00 0.00000000e+00 
2.50000000e+00 5.33333349e+00 0.00000000e+00 
0.00000000e+00 5.66666651e+00 0.00000000e+00 
8.33333313e-01 5.66666651e+00 0.00000000e+00 
1.66666663e+00 5.66666651e+00 0.00000000e+00 
2.50000000e+00 5.66666651e+00 0.00000000e+00 
0.00000000e+00 6.00000000e+00 0.00000000e+00 
8.33333313e-01 6.00000000e+00 0.00000000e+00 
1.66666663e+00 6.00000000e+00 0.00000000e+00 
2.50000000e+00 6.00000000e+00 0.00000000e+00 

        </DataArray>
      </Points>
      <Cells>
        <DataArray type="Int32" Name="connectivity" format="ascii">
0 1 5 4
4 5 9 8
8 9 13 12
1 2 6 5
5 6 10 9
9 10 14 13
2 3 7 6
6 7 11 10
10 11 15 14

        </DataArray>
        <DataArray type="Int32" Name="offsets" format="ascii">
4 8 12 16 20 24 28 32 36 
        </DataArray>
        <DataArray type="UInt8" Name="types" format="ascii">
9 9 9 9 9 9 9 9 9 
        </DataArray>
      </Cells>
      <PointData>
        <DataArray type="Float64" Name="u">
          2.00000000e+02 2.00962108e+02 2.01944587e+02 2.04505269e+02 1.55555556e+02 1.58137941e+02 1.58452443e+02 1.63808822e+02 8.88888889e+01 9.24458143e+01 9.15961870e+01 1.00791166e+02 0.00000000e+00 0.00000000e+00 0.00000000e+00 0.00000000e+00 
        </DataArray>
        <DataArray type="Float64" Name="v">
          0.00000000e+00 2.34153693e+00 4.10465368e+00 6.65018809e+00 0.00000000e+00 1.01486717e+00 2.34569884e+00 4.23525972e+00 0.00000000e+00 1.24314494e+00 1.80299689e+00 4.27436641e+00 0.00000000e+00 0.00000000e+00 0.00000000e+00 0.00000000e+00 
        </DataArray>
        <DataArray type="Float64" Name="p">
          -3.02508174e+03 -4.03842889e+03 -5.05177604e+03 -6.06512320e+03 -3.05631547e+03 -4.09017388e+03 -5.12403229e+03 -6.15789070e+03 -3.08754921e+03 -4.14191887e+03 -5.19628853e+03 -6.25065820e+03 -3.11878295e+03 -4.19366386e+03 -5.26854478e+03 -6.34342570e+03 
        </DataArray>
      </PointData>
    </Piece>
    <Piece NumberOfPoints="16" NumberOfCells="9">
      <Points>
        <DataArray type="Float64" NumberOfComponents="3" format="ascii">
          2.50000000e+00 0.00000000e+00 0.00000000e+00 
3.33333325e+00 0.00000000e+00 0.00000000e+00 
4.16666651e+00 0.00000000e+00 0.00000000e+00 
5.00000000e+00 0.00000000e+00 0.00000000e+00 
2.50000000e+00 3.33333343e-01 0.00000000e+00 
3.33333325e+00 3.33333343e-01 0.00000000e+00 
4.16666651e+00 3.33333343e-01 0.00000000e+00 
5.00000000e+00 3.33333343e-01 0.00000000e+00 
2.50000000e+00 6.66666687e-01 0.00000000e+00 
3.33333325e+00 6.66666687e-01 0.00000000e+00 
4.16666651e+00 6.66666687e-01 0.00000000e+00 
5.00000000e+00 6.66666687e-01 0.00000000e+00 
2.50000000e+00 1.00000000e+00 0.00000000e+00 
3.33333325e+00 1.00000000e+00 0.00000000e+00 
4.16666651e+00 1.00000000e+00 0.00000000e+00 
5.00000000e+00 1.00000000e+00 0.00000000e+00 

        </DataArray>
      </Points>
      <Cells>
        <DataArray type="Int32" Name="connectivity" format="ascii">
0 1 5 4
4 5 9 8
8 9 13 12
1 2 6 5
5 6 10 9
9 10 14 13
2 3 7 6
6 7 11 10
10 11 15 14

        </DataArray>
        <DataArray type="Int32" Name="offsets" format="ascii">
4 8 12 16 20 24 28 32 36 
        </DataArray>
        <DataArray type="UInt8" Name="types" format="ascii">
9 9 9 9 9 9 9 9 9 
        </DataArray>
      </Cells>
      <PointData>
        <DataArray type="Float64" Name="u">
          0.00000000e+00 0.00000000e+00 0.00000000e+00 0.00000000e+00 0.00000000e+00 -2.05904206e+00 -3.72439708e+00 -6.55237707e+00 0.00000000e+00 -3.74347909e+00 -6.91081961e+00 -1.14583614e+01 0.00000000e+00 -5.03999658e+00 -9.21490313e+00 -1.45567467e+01 
        </DataArray>
        <DataArray type="Float64" Name="v">
          0.00000000e+00 0.00000000e+00 0.00000000e+00 0.00000000e+00 0.00000000e+00 6.15175913e-01 6.71769021e-01 4.44213175e-01 0.00000000e+00 1.90076835e+00 1.91404401e+00 1.28304946e+00 0.00000000e+00 4.25443308e+00 3.98860477e+00 2.70647134e+00 
        </DataArray>
        <DataArray type="Float64" Name="p">
          -4.68399170e+03 -4.66668462e+03 -4.64937755e+03 -4.63207048e+03 -4.67562013e+03 -4.65825583e+03 -4.64089153e+03 -4.62352723e+03 -4.66724855e+03 -4.64982703e+03 -4.63240551e+03 -4.61498399e+03 -4.65887698e+03 -4.64139824e+03 -4.62391949e+03 -4.60644074e+03 
        </DataArray>
      </PointData>
    </Piece>
    <Piece NumberOfPoints="16" NumberOfCells="9">
      <Points>
        <DataArray type="Float64" NumberOfComponents="3" format="ascii">
          2.50000000e+00 1.00000000e+00 0.00000000e+00 
3.33333325e+00 1.00000000e+00 0.00000000e+00 
4.16666651e+00 1.00000000e+00 0.00000000e+00 
5.00000000e+00 1.00000000e+00 0.00000000e+00 
2.50000000e+00 1.33333337e+00 0.00000000e+00 
3.33333325e+00 1.33333337e+00 0.00000000e+00 
4.16666651e+00 1.33333337e+00 0.00000000e+00 
5.00000000e+00 1.33333337e+00 0.00000000e+00 
2.50000000e+00 1.66666663e+00 0.00000000e+00 
3.33333325e+00 1.66666663e+00 0.00000000e+00 
4.16666651e+00 1.66666663e+00 0.00000000e+00 
5.00000000e+00 1.66666663e+00 0.00000000e+00 
2.50000000e+00 2.00000000e+00 0.00000000e+00 
3.33333325e+00 2.00000000e+00 0.00000000e+00 
4.16666651e+00 2.00000000e+00 0.00000000e+00 
5.00000000e+00 2.00000000e+00 0.00000000e+00 

        </DataArray>
      </Points>
      <Cells>
        <DataArray type="Int32" Name="connectivity" format="ascii">
0 1 5 4
4 5 9 8
8 9 13 12
1 2 6 5
5 6 10 9
9 10 14 13
2 3 7 6
6 7 11 10
10 11 15 14

        </DataArray>
        <DataArray type="Int32" Name="offsets" format="ascii">
4 8 12 16 20 24 28 32 36 
        </DataArray>
        <DataArray type="UInt8" Name="types" format="ascii">
9 9 9 9 9 9 9 9 9 
        </DataArray>
      </Cells>
      <PointData>
        <DataArray type="Float64" Name="u">
          0.00000000e+00 -5.03999658e+00 -9.21490313e+00 -1.45567467e+01 0.00000000e+00 -5.92162346e+00 -1.03561730e+01 -1.56426689e+01 0.00000000e+00 -6.17563838e+00 -9.91581330e+00 -1.41126813e+01 0.00000000e+00 -5.34270118e+00 -7.22563846e+00 -9.22784890e+00 
        </DataArray>
        <DataArray type="Float64" Name="v">
          0.00000000e+00 4.25443308e+00 3.98860477e+00 2.70647134e+00 0.00000000e+00 7.29745426e+00 6.31005665e+00 4.07392872e+00 0.00000000e+00 9.81512883e+00 8.11823445e+00 4.94785615e+00 0.00000000e+00 1.27920619e+01 9.67637709e+00 5.25052639e+00 
        </DataArray>
        <DataArray type="Float64" Name="p">
          -4.64749222e+03 -4.63501536e+03 -4.62253850e+03 -4.61006164e+03 -4.70201696e+03 -4.67971509e+03 -4.65741323e+03 -4.63511136e+03 -4.75654171e+03 -4.72441483e+03 -4.69228796e+03 -4.66016108e+03 -4.81106645e+03 -4.76911457e+03 -4.72716268e+03 -4.68521080e+03 
        </DataArray>
      </PointData>
    </Piece>
    <Piece NumberOfPoints="16" NumberOfCells="9">
      <Points>
        <DataArray type="Float64" NumberOfComponents="3" format="ascii">
          2.50000000e+00 2.00000000e+00 0.00000000e+00 
3.33333325e+00 2.00000000e+00 0.00000000e+00 
4.16666651e+00 2.00000000e+00 0.00000000e+00 
5.00000000e+00 2.00000000e+00 0.00000000e+00 
2.50000000e+00 2.33333325e+00 0.00000000e+00 
3.33333325e+00 2.33333325e+00 0.00000000e+00 
4.16666651e+00 2.33333325e+00 0.00000000e+00 
5.00000000e+00 2.33333325e+00 0.00000000e+00 
2.50000000e+00 2.66666675e+00 0.00000000e+00 
3.33333325e+00 2.66666675e+00 0.00000000e+00 
4.16666651e+00 2.66666675e+00 0.00000000e+00 
5.00000000e+00 2.66666675e+00 0.00000000e+00 
2.50000000e+00 3.00000000e+00 0.00000000e+00 
3.33333325e+00 3.00000000e+00 0.00000000e+00 
4.16666651e+00 3.00000000e+00 0.00000000e+00 
5.00000000e+00 3.00000000e+00 0.00000000e+00 

        </DataArray>
      </Points>
      <Cells>
        <DataArray type="Int32" Name="connectivity" format="ascii">
0 1 5 4
4 5 9 8
8 9 13 12
1 2 6 5
5 6 10 9
9 10 14 13
2 3 7 6
6 7 11 10
10 11 15 14

        </DataArray>
        <DataArray type="Int32" Name="offsets" format="ascii">
4 8 12 16 20 24 28 32 36 
        </DataArray>
        <DataArray type="UInt8" Name="types" format="ascii">
9 9 9 9 9 9 9 9 9 
        </DataArray>
      </Cells>
      <PointData>
        <DataArray type="Float64" Name="u">
          0.00000000e+00 -5.34270118e+00 -7.22563846e+00 -9.22784890e+00 0.00000000e+00 -2.44512070e+00 -1.63237557e+00 1.19010078e+00 0.00000000e+00 6.95370902e+00 1.03126497e+01 1.81282447e+01 0.00000000e+00 3.50022381e+01 3.50301591e+01 4.49605094e+01 
        </DataArray>
        <DataArray type="Float64" Name="v">
          0.00000000e+00 1.27920619e+01 9.67637709e+00 5.25052639e+00 0.00000000e+00 1.48907057e+01 9.21272298e+00 4.04676402e+00 0.00000000e+00 1.34848813e+01 8.44609384e+00 3.14091944e+00 0.00000000e+00 6.18103603e+00 4.57511351e+00 2.91231587e+00 
        </DataArray>
        <DataArray type="Float64" Name="p">
          -4.79107870e+03 -4.77706942e+03 -4.76306014e+03 -4.74905086e+03 -4.99953204e+03 -4.88651249e+03 -4.77349294e+03 -4.66047339e+03 -5.20798537e+03 -4.99595555e+03 -4.78392573e+03 -4.57189591e+03 -5.41643871e+03 -5.10539862e+03 -4.79435853e+03 -4.48331844e+03 
        </DataArray>
      </PointData>
    </Piece>
    <Piece NumberOfPoints="16" NumberOfCells="9">
      <Points>
        <DataArray type="Float64" NumberOfComponents="3" format="ascii">
          2.50000000e+00 3.00000000e+00 0.00000000e+00 
3.33333325e+00 3.00000000e+00 0.00000000e+00 
4.16666651e+00 3.00000000e+00 0.00000000e+00 
5.00000000e+00 3.00000000e+00 0.00000000e+00 
2.50000000e+00 3.33333325e+00 0.00000000e+00 
3.33333325e+00 3.33333325e+00 0.00000000e+00 
4.16666651e+00 3.33333325e+00 0.00000000e+00 
5.00000000e+00 3.33333325e+00 0.00000000e+00 
2.50000000e+00 3.66666675e+00 0.00000000e+00 
3.33333325e+00 3.66666675e+00 0.00000000e+00 
4.16666651e+00 3.66666675e+00 0.00000000e+00 
5.00000000e+00 3.66666675e+00 0.00000000e+00 
2.50000000e+00 4.00000000e+00 0.00000000e+00 
3.33333325e+00 4.00000000e+00 0.00000000e+00 
4.16666651e+00 4.00000000e+00 0.00000000e+00 
5.00000000e+00 4.00000000e+00 0.00000000e+00 

        </DataArray>
      </Points>
      <Cells>
        <DataArray type="Int32" Name="connectivity" format="ascii">
0 1 5 4
4 5 9 8
8 9 13 12
1 2 6 5
5 6 10 9
9 10 14 13
2 3 7 6
6 7 11 10
10 11 15 14

        </DataArray>
        <DataArray type="Int32" Name="offsets" format="ascii">
4 8 12 16 20 24 28 32 36 
        </DataArray>
        <DataArray type="UInt8" Name="types" format="ascii">
9 9 9 9 9 9 9 9 9 
        </DataArray>
      </Cells>
      <PointData>
        <DataArray type="Float64" Name="u">
          0.00000000e+00 3.50022381e+01 3.50301591e+01 4.49605094e+01 8.06163550e+01 8.18748988e+01 7.96269808e+01 7.84716818e+01 1.47571080e+02 1.39709895e+02 1.33487476e+02 1.24237120e+02 1.93608411e+02 1.85155712e+02 1.79336661e+02 1.67426285e+02 
        </DataArray>
        <DataArray type="Float64" Name="v">
          0.00000000e+00 6.18103603e+00 4.57511351e+00 2.91231587e+00 1.61938943e+00 6.29481067e-01 3.93369387e+00 7.00016782e+00 3.11503219e+00 8.45921354e-01 3.05202799e+00 8.14018259e+00 5.30736957e+00 5.09482663e+00 8.30507611e+00 1.27366928e+01 
        </DataArray>
        <DataArray type="Float64" Name="p">
          -5.45009367e+03 -5.05262555e+03 -4.65515744e+03 -4.25768932e+03 -5.23462657e+03 -4.99330957e+03 -4.75199256e+03 -4.51067556e+03 -5.01915947e+03 -4.93399358e+03 -4.84882769e+03 -4.76366180e+03 -4.80369237e+03 -4.87467759e+03 -4.94566281e+03 -5.01664803e+03 
        </DataArray>
      </PointData>
    </Piece>
    <Piece NumberOfPoints="16" NumberOfCells="9">
      <Points>
        <DataArray type="Float64" NumberOfComponents="3" format="ascii">
          2.50000000e+00 4.00000000e+00 0.00000000e+00 
3.33333325e+00 4.00000000e+00 0.00000000e+00 
4.16666651e+00 4.00000000e+00 0.00000000e+00 
5.00000000e+00 4.00000000e+00 0.00000000e+00 
2.50000000e+00 4.33333349e+00 0.00000000e+00 
3.33333325e+00 4.33333349e+00 0.00000000e+00 
4.16666651e+00 4.33333349e+00 0.00000000e+00 
5.00000000e+00 4.33333349e+00 0.00000000e+00 
2.50000000e+00 4.66666651e+00 0.00000000e+00 
3.33333325e+00 4.66666651e+00 0.00000000e+00 
4.16666651e+00 4.66666651e+00 0.00000000e+00 
5.00000000e+00 4.66666651e+00 0.00000000e+00 
2.50000000e+00 5.00000000e+00 0.00000000e+00 
3.33333325e+00 5.00000000e+00 0.00000000e+00 
4.16666651e+00 5.00000000e+00 0.00000000e+00 
5.00000000e+00 5.00000000e+00 0.00000000e+00 

        </DataArray>
      </Points>
      <Cells>
        <DataArray type="Int32" Name="connectivity" format="ascii">
0 1 5 4
4 5 9 8
8 9 13 12
1 2 6 5
5 6 10 9
9 10 14 13
2 3 7 6
6 7 11 10
10 11 15 14

        </DataArray>
        <DataArray type="Int32" Name="offsets" format="ascii">
4 8 12 16 20 24 28 32 36 
        </DataArray>
        <DataArray type="UInt8" Name="types" format="ascii">
9 9 9 9 9 9 9 9 9 
        </DataArray>
      </Cells>
      <PointData>
        <DataArray type="Float64" Name="u">
          1.93608411e+02 1.85155712e+02 1.79336661e+02 1.67426285e+02 2.19017823e+02 2.11157318e+02 2.07247336e+02 1.96821531e+02 2.22785634e+02 2.16657267e+02 2.15718286e+02 2.08488041e+02 2.04505269e+02 2.00143466e+02 2.03598733e+02 1.99774444e+02 
        </DataArray>
        <DataArray type="Float64" Name="v">
          5.30736957e+00 5.09482663e+00 8.30507611e+00 1.27366928e+01 6.65192014e+00 9.60674453e+00 1.25397946e+01 1.62941097e+01 6.58657100e+00 1.02025338e+01 1.44875775e+01 1.85754242e+01 6.65018809e+00 1.30342710e+01 1.65017395e+01 1.91433941e+01 
        </DataArray>
        <DataArray type="Float64" Name="p">
          -4.71405275e+03 -4.86645518e+03 -5.01885762e+03 -5.17126006e+03 -4.99774159e+03 -5.18908641e+03 -5.38043122e+03 -5.57177603e+03 -5.28143044e+03 -5.51171763e+03 -5.74200482e+03 -5.97229200e+03 -5.56511929e+03 -5.83434885e+03 -6.10357841e+03 -6.37280798e+03 
        </DataArray>
      </PointData>
    </Piece>
    <Piece NumberOfPoints="16" NumberOfCells="9">
      <Points>
        <DataArray type="Float64" NumberOfComponents="3" format="ascii">
          2.50000000e+00 5.00000000e+00 0.00000000e+00 
3.33333325e+00 5.00000000e+00 0.00000000e+00 
4.16666651e+00 5.00000000e+00 0.00000000e+00 
5.00000000e+00 5.00000000e+00 0.00000000e+00 
2.50000000e+00 5.33333349e+00 0.00000000e+00 
3.33333325e+00 5.33333349e+00 0.00000000e+00 
4.16666651e+00 5.33333349e+00 0.00000000e+00 
5.00000000e+00 5.33333349e+00 0.00000000e+00 
2.50000000e+00 5.66666651e+00 0.00000000e+00 
3.33333325e+00 5.66666651e+00 0.00000000e+00 
4.16666651e+00 5.66666651e+00 0.00000000e+00 
5.00000000e+00 5.66666651e+00 0.00000000e+00 
2.50000000e+00 6.00000000e+00 0.00000000e+00 
3.33333325e+00 6.00000000e+00 0.00000000e+00 
4.16666651e+00 6.00000000e+00 0.00000000e+00 
5.00000000e+00 6.00000000e+00 0.00000000e+00 

        </DataArray>
      </Points>
      <Cells>
        <DataArray type="Int32" Name="connectivity" format="ascii">
0 1 5 4
4 5 9 8
8 9 13 12
1 2 6 5
5 6 10 9
9 10 14 13
2 3 7 6
6 7 11 10
10 11 15 14

        </DataArray>
        <DataArray type="Int32" Name="offsets" format="ascii">
4 8 12 16 20 24 28 32 36 
        </DataArray>
        <DataArray type="UInt8" Name="types" format="ascii">
9 9 9 9 9 9 9 9 9 
        </DataArray>
      </Cells>
      <PointData>
        <DataArray type="Float64" Name="u">
          2.04505269e+02 2.00143466e+02 2.03598733e+02 1.99774444e+02 1.63808822e+02 1.63728930e+02 1.69808484e+02 1.72981200e+02 1.00791166e+02 1.08485265e+02 1.19939693e+02 1.31816217e+02 0.00000000e+00 5.29514722e+01 6.49464057e+01 8.88981837e+01 
        </DataArray>
        <DataArray type="Float64" Name="v">
          6.65018809e+00 1.30342710e+01 1.65017395e+01 1.91433941e+01 4.23525972e+00 1.26267487e+01 1.58760023e+01 1.60403356e+01 4.27436641e+00 1.25644073e+01 1.42756556e+01 1.39188767e+01 0.00000000e+00 1.03563231e+00 6.09726520e+00 1.10990629e+01 
        </DataArray>
        <DataArray type="Float64" Name="p">
          -5.72841212e+03 -5.95903337e+03 -6.18965461e+03 -6.42027586e+03 -6.34092151e+03 -6.32335405e+03 -6.30578658e+03 -6.28821912e+03 -6.95343089e+03 -6.68767472e+03 -6.42191855e+03 -6.15616238e+03 -7.56594028e+03 -7.05199540e+03 -6.53805052e+03 -6.02410564e+03 
        </DataArray>
      </PointData>
    </Piece>
    <Piece NumberOfPoints="16" NumberOfCells="9">
      <Points>
        <DataArray type="Float64" NumberOfComponents="3" format="ascii">
          2.50000000e+00 6.00000000e+00 0.00000000e+00 
3.33333325e+00 6.00000000e+00 0.00000000e+00 
4.16666651e+00 6.00000000e+00 0.00000000e+00 
5.00000000e+00 6.00000000e+00 0.00000000e+00 
2.50000000e+00 6.33333349e+00 0.00000000e+00 
3.33333325e+00 6.33333349e+00 0.00000000e+00 
4.16666651e+00 6.33333349e+00 0.00000000e+00 
5.00000000e+00 6.33333349e+00 0.00000000e+00 
2.50000000e+00 6.66666651e+00 0.00000000e+00 
3.33333325e+00 6.66666651e+00 0.00000000e+00 
4.16666651e+00 6.66666651e+00 0.00000000e+00 
5.00000000e+00 6.66666651e+00 0.00000000e+00 
2.50000000e+00 7.00000000e+00 0.00000000e+00 
3.33333325e+00 7.00000000e+00 0.00000000e+00 
4.16666651e+00 7.00000000e+00 0.00000000e+00 
5.00000000e+00 7.00000000e+00 0.00000000e+00 

        </DataArray>
      </Points>
      <Cells>
        <DataArray type="Int32" Name="connectivity" format="ascii">
0 1 5 4
4 5 9 8
8 9 13 12
1 2 6 5
5 6 10 9
9 10 14 13
2 3 7 6
6 7 11 10
10 11 15 14

        </DataArray>
        <DataArray type="Int32" Name="offsets" format="ascii">
4 8 12 16 20 24 28 32 36 
        </DataArray>
        <DataArray type="UInt8" Name="types" format="ascii">
9 9 9 9 9 9 9 9 9 
        </DataArray>
      </Cells>
      <PointData>
        <DataArray type="Float64" Name="u">
          0.00000000e+00 5.29514722e+01 6.49464057e+01 8.88981837e+01 0.00000000e+00 1.38366955e+01 2.61577633e+01 4.83215815e+01 0.00000000e+00 -8.93986437e-02 6.30732203e+00 1.97137070e+01 0.00000000e+00 -4.79255686e+00 -3.71333713e+00 -4.60040413e-01 
        </DataArray>
        <DataArray type="Float64" Name="v">
          0.00000000e+00 1.03563231e+00 6.09726520e+00 1.10990629e+01 0.00000000e+00 -1.22369993e+01 -3.83871489e+00 6.28316680e+00 0.00000000e+00 -1.64691030e+01 -8.23253986e+00 1.61425790e+00 0.00000000e+00 -1.53112879e+01 -1.15796466e+01 -3.84704438e+00 
        </DataArray>
        <DataArray type="Float64" Name="p">
          -7.41449427e+03 -6.99157183e+03 -6.56864939e+03 -6.14572695e+03 -7.14649975e+03 -6.87145973e+03 -6.59641971e+03 -6.32137969e+03 -6.87850523e+03 -6.75134763e+03 -6.62419004e+03 -6.49703244e+03 -6.61051071e+03 -6.63123554e+03 -6.65196036e+03 -6.67268518e+03 
        </DataArray>
      </PointData>
    </Piece>
    <Piece NumberOfPoints="16" NumberOfCells="9">
      <Points>
        <DataArray type="Float64" NumberOfComponents="3" format="ascii">
          2.50000000e+00 7.00000000e+00 0.00000000e+00 
3.33333325e+00 7.00000000e+00 0.00000000e+00 
4.16666651e+00 7.00000000e+00 0.00000000e+00 
5.00000000e+00 7.00000000e+00 0.00000000e+00 
2.50000000e+00 7.33333349e+00 0.00000000e+00 
3.33333325e+00 7.33333349e+00 0.00000000e+00 
4.16666651e+00 7.33333349e+00 0.00000000e+00 
5.00000000e+00 7.33333349e+00 0.00000000e+00 
2.50000000e+00 7.66666651e+00 0.00000000e+00 
3.33333325e+00 7.66666651e+00 0.00000000e+00 
4.16666651e+00 7.66666651e+00 0.00000000e+00 
5.00000000e+00 7.66666651e+00 0.00000000e+00 
2.50000000e+00 8.00000000e+00 0.00000000e+00 
3.33333325e+00 8.00000000e+00 0.00000000e+00 
4.16666651e+00 8.00000000e+00 0.00000000e+00 
5.00000000e+00 8.00000000e+00 0.00000000e+00 

        </DataArray>
      </Points>
      <Cells>
        <DataArray type="Int32" Name="connectivity" format="ascii">
0 1 5 4
4 5 9 8
8 9 13 12
1 2 6 5
5 6 10 9
9 10 14 13
2 3 7 6
6 7 11 10
10 11 15 14

        </DataArray>
        <DataArray type="Int32" Name="offsets" format="ascii">
4 8 12 16 20 24 28 32 36 
        </DataArray>
        <DataArray type="UInt8" Name="types" format="ascii">
9 9 9 9 9 9 9 9 9 
        </DataArray>
      </Cells>
      <PointData>
        <DataArray type="Float64" Name="u">
          0.00000000e+00 -4.79255686e+00 -3.71333713e+00 -4.60040413e-01 0.00000000e+00 -6.81809060e+00 -9.74179221e+00 -1.22672708e+01 0.00000000e+00 -7.30655419e+00 -1.23227595e+01 -1.84668838e+01 0.00000000e+00 -6.72374072e+00 -1.21403788e+01 -1.97512718e+01 
        </DataArray>
        <DataArray type="Float64" Name="v">
          0.00000000e+00 -1.53112879e+01 -1.15796466e+01 -3.84704438e+00 0.00000000e+00 -1.25245780e+01 -1.08979644e+01 -5.72758379e+00 0.00000000e+00 -9.67613312e+00 -8.95898447e+00 -5.67026529e+00 0.00000000e+00 -5.87296924e+00 -5.88319418e+00 -4.28584737e+00 
        </DataArray>
        <DataArray type="Float64" Name="p">
          -6.65063887e+03 -6.62069933e+03 -6.59075979e+03 -6.56082024e+03 -6.58530563e+03 -6.55664240e+03 -6.52797917e+03 -6.49931593e+03 -6.51997238e+03 -6.49258546e+03 -6.46519855e+03 -6.43781163e+03 -6.45463914e+03 -6.42852853e+03 -6.40241793e+03 -6.37630732e+03 
        </DataArray>
      </PointData>
    </Piece>
    <Piece NumberOfPoints="16" NumberOfCells="9">
      <Points>
        <DataArray type="Float64" NumberOfComponents="3" format="ascii">
          2.50000000e+00 8.00000000e+00 0.00000000e+00 
3.33333325e+00 8.00000000e+00 0.00000000e+00 
4.16666651e+00 8.00000000e+00 0.00000000e+00 
5.00000000e+00 8.00000000e+00 0.00000000e+00 
2.50000000e+00 8.33333302e+00 0.00000000e+00 
3.33333325e+00 8.33333302e+00 0.00000000e+00 
4.16666651e+00 8.33333302e+00 0.00000000e+00 
5.00000000e+00 8.33333302e+00 0.00000000e+00 
2.50000000e+00 8.66666698e+00 0.00000000e+00 
3.33333325e+00 8.66666698e+00 0.00000000e+00 
4.16666651e+00 8.66666698e+00 0.00000000e+00 
5.00000000e+00 8.66666698e+00 0.00000000e+00 
2.50000000e+00 9.00000000e+00 0.00000000e+00 
3.33333325e+00 9.00000000e+00 0.00000000e+00 
4.16666651e+00 9.00000000e+00 0.00000000e+00 
5.00000000e+00 9.00000000e+00 0.00000000e+00 

        </DataArray>
      </Points>
      <Cells>
        <DataArray type="Int32" Name="connectivity" format="ascii">
0 1 5 4
4 5 9 8
8 9 13 12
1 2 6 5
5 6 10 9
9 10 14 13
2 3 7 6
6 7 11 10
10 11 15 14

        </DataArray>
        <DataArray type="Int32" Name="offsets" format="ascii">
4 8 12 16 20 24 28 32 36 
        </DataArray>
        <DataArray type="UInt8" Name="types" format="ascii">
9 9 9 9 9 9 9 9 9 
        </DataArray>
      </Cells>
      <PointData>
        <DataArray type="Float64" Name="u">
          0.00000000e+00 -6.72374072e+00 -1.21403788e+01 -1.97512718e+01 0.00000000e+00 -5.24508571e+00 -9.61514202e+00 -1.67006198e+01 0.00000000e+00 -2.96606256e+00 -5.33499608e+00 -9.67757096e+00 0.00000000e+00 0.00000000e+00 0.00000000e+00 0.00000000e+00 
        </DataArray>
        <DataArray type="Float64" Name="v">
          0.00000000e+00 -5.87296924e+00 -5.88319418e+00 -4.28584737e+00 0.00000000e+00 -2.67462843e+00 -2.76818409e+00 -2.21825555e+00 0.00000000e+00 -9.08374964e-01 -9.77271098e-01 -8.83637611e-01 0.00000000e+00 0.00000000e+00 0.00000000e+00 0.00000000e+00 
        </DataArray>
        <DataArray type="Float64" Name="p">
          -6.46639136e+03 -6.43184993e+03 -6.39730850e+03 -6.36276706e+03 -6.47516638e+03 -6.44220385e+03 -6.40924133e+03 -6.37627880e+03 -6.48394140e+03 -6.45255778e+03 -6.42117416e+03 -6.38979054e+03 -6.49271641e+03 -6.46291170e+03 -6.43310699e+03 -6.40330228e+03 
        </DataArray>
      </PointData>
    </Piece>
    <Piece NumberOfPoints="16" NumberOfCells="9">
      <Points>
        <DataArray type="Float64" NumberOfComponents="3" format="ascii">
          5.00000000e+00 0.00000000e+00 0.00000000e+00 
5.83333349e+00 0.00000000e+00 0.00000000e+00 
6.66666651e+00 0.00000000e+00 0.00000000e+00 
7.50000000e+00 0.00000000e+00 0.00000000e+00 
5.00000000e+00 3.33333343e-01 0.00000000e+00 
5.83333349e+00 3.33333343e-01 0.00000000e+00 
6.66666651e+00 3.33333343e-01 0.00000000e+00 
7.50000000e+00 3.33333343e-01 0.00000000e+00 
5.00000000e+00 6.66666687e-01 0.00000000e+00 
5.83333349e+00 6.66666687e-01 0.00000000e+00 
6.66666651e+00 6.66666687e-01 0.00000000e+00 
7.50000000e+00 6.66666687e-01 0.00000000e+00 
5.00000000e+00 1.00000000e+00 0.00000000e+00 
5.83333349e+00 1.00000000e+00 0.00000000e+00 
6.66666651e+00 1.00000000e+00 0.00000000e+00 
7.50000000e+00 1.00000000e+00 0.00000000e+00 

        </DataArray>
      </Points>
      <Cells>
        <DataArray type="Int32" Name="connectivity" format="ascii">
0 1 5 4
4 5 9 8
8 9 13 12
1 2 6 5
5 6 10 9
9 10 14 13
2 3 7 6
6 7 11 10
10 11 15 14

        </DataArray>
        <DataArray type="Int32" Name="offsets" format="ascii">
4 8 12 16 20 24 28 32 36 
        </DataArray>
        <DataArray type="UInt8" Name="types" format="ascii">
9 9 9 9 9 9 9 9 9 
        </DataArray>
      </Cells>
      <PointData>
        <DataArray type="Float64" Name="u">