<?xml version="1.0"?>
<VTKFile type="UnstructuredGrid" version="0.1" byte_order="LittleEndian">
  <UnstructuredGrid>
    <Piece NumberOfPoints="16" NumberOfCells="9">
      <Points>
        <DataArray type="Float64" NumberOfComponents="3" format="ascii">
          0.00000000e+00 3.00000000e+00 0.00000000e+00 
8.33333313e-01 3.00000000e+00 0.00000000e+00 
1.66666663e+00 3.00000000e+00 0.00000000e+00 
2.50000000e+00 3.00000000e+00 0.00000000e+00 
0.00000000e+00 3.33333325e+00 0.00000000e+00 
8.33333313e-01 3.33333325e+00 0.00000000e+00 
1.66666663e+00 3.33333325e+00 0.00000000e+00 
2.50000000e+00 3.33333325e+00 0.00000000e+00 
0.00000000e+00 3.66666675e+00 0.00000000e+00 
8.33333313e-01 3.66666675e+00 0.00000000e+00 
1.66666663e+00 3.66666675e+00 0.00000000e+00 
2.50000000e+00 3.66666675e+00 0.00000000e+00 
0.00000000e+00 4.00000000e+00 0.00000000e+00 
8.33333313e-01 4.00000000e+00 0.00000000e+00 
1.66666663e+00 4.00000000e+00 0.00000000e+00 
2.50000000e+00 4.00000000e+00 0.00000000e+00 

        </DataArray>
      </Points>
      <Cells>
        <DataArray type="Int32" Name="connectivity" format="ascii">
0 1 5 4
4 5 9 8
8 9 13 12
1 2 6 5
5 6 10 9
9 10 14 13
2 3 7 6
6 7 11 10
10 11 15 14

        </DataArray>
        <DataArray type="Int32" Name="offsets" format="ascii">
4 8 12 16 20 24 28 32 36 
        </DataArray>
        <DataArray type="UInt8" Name="types" format="ascii">
9 9 9 9 9 9 9 9 9 
        </DataArray>
      </Cells>
      <PointData>
        <DataArray type="Float64" Name="u">
          0.00000000e+00 0.00000000e+00 0.00000000e+00 0.00000000e+00 8.88888889e+01 8.94696353e+01 8.95000628e+01 9.10786937e+01 1.55555556e+02 1.55370913e+02 1.56263274e+02 1.55823979e+02 2.00000000e+02 1.98984623e+02 2.00364655e+02 1.98757336e+02 
        </DataArray>
        <DataArray type="Float64" Name="v">
          0.00000000e+00 0.00000000e+00 0.00000000e+00 0.00000000e+00 0.00000000e+00 -2.43316351e-01 -4.08737338e-02 -1.69856287e+00 0.00000000e+00 -2.13849656e-01 -2.39975978e-01 -8.70744203e-01 0.00000000e+00 -3.03017900e-01 -2.38320714e-01 -8.28792679e-01 
        </DataArray>
        <DataArray type="Float64" Name="p">
          -1.49099730e+03 -2.89613483e+03 -4.30127236e+03 -5.70640989e+03 -1.50121705e+03 -2.89342372e+03 -4.28563039e+03 -5.67783706e+03 -1.51143680e+03 -2.89071261e+03 -4.26998842e+03 -5.64926423e+03 -1.52165655e+03 -2.88800150e+03 -4.25434645e+03 -5.62069140e+03 
        </DataArray>
      </PointData>
    </Piece>
    <Piece NumberOfPoints="16" NumberOfCells="9">
      <Points>
        <DataArray type="Float64" NumberOfComponents="3" format="ascii">
          0.00000000e+00 4.00000000e+00 0.00000000e+00 
8.33333313e-01 4.00000000e+00 0.00000000e+00 
1.66666663e+00 4.00000000e+00 0.00000000e+00 
2.50000000e+00 4.00000000e+00 0.00000000e+00 
0.00000000e+00 4.33333349e+00 0.00000000e+00 
8.33333313e-01 4.33333349e+00 0.00000000e+00 
1.66666663e+00 4.33333349e+00 0.00000000e+00 
2.50000000e+00 4.33333349e+00 0.00000000e+00 
0.00000000e+00 4.66666651e+00 0.00000000e+00 
8.33333313e-01 4.66666651e+00 0.00000000e+00 
1.66666663e+00 4.66666651e+00 0.00000000e+00 
2.50000000e+00 4.66666651e+00 0.00000000e+00 
0.00000000e+00 5.00000000e+00 0.00000000e+00 
8.33333313e-01 5.00000000e+00 0.00000000e+00 
1.66666663e+00 5.00000000e+00 0.00000000e+00 
2.50000000e+00 5.00000000e+00 0.00000000e+00 

        </DataArray>
      </Points>
      <Cells>
        <DataArray type="Int32" Name="connectivity" format="ascii">
0 1 5 4
4 5 9 8
8 9 13 12
1 2 6 5
5 6 10 9
9 10 14 13
2 3 7 6
6 7 11 10
10 11 15 14

        </DataArray>
        <DataArray type="Int32" Name="offsets" format="ascii">
4 8 12 16 20 24 28 32 36 
        </DataArray>
        <DataArray type="UInt8" Name="types" format="ascii">
9 9 9 9 9 9 9 9 9 
        </DataArray>
      </Cells>
      <PointData>
        <DataArray type="Float64" Name="u">
          2.00000000e+02 1.98984623e+02 2.00364655e+02 1.98757336e+02 2.22222222e+02 2.20960078e+02 2.22203185e+02 2.20592436e+02 2.22222222e+02 2.20960078e+02 2.22203185e+02 2.20592436e+02 2.00000000e+02 1.98984623e+02 2.00364655e+02 1.98757336e+02 
        </DataArray>
        <DataArray type="Float64" Name="v">
          0.00000000e+00 -3.03017900e-01 -2.38320714e-01 -8.28792679e-01 0.00000000e+00 -1.33871832e-02 -1.02581475e-01 3.70552413e-02 0.00000000e+00 1.33871830e-02 1.02581475e-01 -3.70552421e-02 0.00000000e+00 3.03017900e-01 2.38320714e-01 8.28792678e-01 
        </DataArray>
        <DataArray type="Float64" Name="p">
          -1.50041225e+03 -2.87400391e+03 -4.24759558e+03 -5.62118725e+03 -1.50041225e+03 -2.87400391e+03 -4.24759558e+03 -5.62118725e+03 -1.50041225e+03 -2.87400391e+03 -4.24759558e+03 -5.62118725e+03 -1.50041225e+03 -2.87400391e+03 -4.24759558e+03 -5.62118725e+03 
        </DataArray>
      </PointData>
    </Piece>
    <Piece NumberOfPoints="16" NumberOfCells="9">
      <Points>
        <DataArray type="Float64" NumberOfComponents="3" format="ascii">
          0.00000000e+00 5.00000000e+00 0.00000000e+00 
8.33333313e-01 5.00000000e+00 0.00000000e+00 
1.66666663e+00 5.00000000e+00 0.00000000e+00 
2.50000000e+00 5.00000000e+00 0.00000000e+00 
0.00000000e+00 5.33333349e+00 0.00000000e+00 
8.33333313e-01 5.33333349e+00 0.00000000e+00 
1.66666663e+00 5.33333349e+00 0.00000000e+00 
2.50000000e+00 5.33333349e+00 0.00000000e+00 
0.00000000e+00 5.66666651e+00 0.00000000e+00 
8.33333313e-01 5.66666651e+00 0.00000000e+00 
1.66666663e+00 5.66666651e+00 0.00000000e+00 
2.50000000e+00 5.66666651e+00 0.00000000e+00 
0.00000000e+00 6.00000000e+00 0.00000000e+00 
8.33333313e-01 6.00000000e+00 0.00000000e+00 
1.66666663e+00 6.00000000e+00 0.00000000e+00 
2.50000000e+00 6.00000000e+00 0.00000000e+00 

        </DataArray>
      </Points>
      <Cells>
        <DataArray type="Int32" Name="connectivity" format="ascii">
0 1 5 4
4 5 9 8
8 9 13 12
1 2 6 5
5 6 10 9
9 10 14 13
2 3 7 6
6 7 11 10
10 11 15 14

        </DataArray>
        <DataArray type="Int32" Name="offsets" format="ascii">
4 8 12 16 20 24 28 32 36 
        </DataArray>
        <DataArray type="UInt8" Name="types" format="ascii">
9 9 9 9 9 9 9 9 9 
        </DataArray>
      </Cells>
      <PointData>
        <DataArray type="Float64" Name="u">
          2.00000000e+02 1.98984623e+02 2.00364655e+02 1.98757336e+02 1.55555556e+02 1.55370913e+02 1.56263274e+02 1.55823979e+02 8.88888889e+01 8.94696353e+01 8.95000628e+01 9.10786937e+01 0.00000000e+00 0.00000000e+00 0.00000000e+00 0.00000000e+00 
        </DataArray>
        <DataArray type="Float64" Name="v">
          0.00000000e+00 3.03017900e-01 2.38320714e-01 8.28792678e-01 0.00000000e+00 2.13849656e-01 2.39975978e-01 8.70744203e-01 0.00000000e+00 2.43316350e-01 4.08737336e-02 1.69856287e+00 0.00000000e+00 0.00000000e+00 0.00000000e+00 0.00000000e+00 
        </DataArray>
        <DataArray type="Float64" Name="p">
          -1.52165655e+03 -2.88800150e+03 -4.25434645e+03 -5.62069140e+03 -1.51143680e+03 -2.89071261e+03 -4.26998842e+03 -5.64926423e+03 -1.50121705e+03 -2.89342372e+03 -4.28563039e+03 -5.67783706e+03 -1.49099730e+03 -2.89613483e+03 -4.30127236e+03 -5.70640989e+03 
        </DataArray>
      </PointData>
    </Piece>
    <Piece NumberOfPoints="16" NumberOfCells="9">
      <Points>
        <DataArray type="Float64" NumberOfComponents="3" format="ascii">
          2.50000000e+00 0.00000000e+00 0.00000000e+00 
3.33333325e+00 0.00000000e+00 0.00000000e+00 
4.16666651e+00 0.00000000e+00 0.00000000e+00 
5.00000000e+00 0.00000000e+00 0.00000000e+00 
2.50000000e+00 3.33333343e-01 0.00000000e+00 
3.33333325e+00 3.33333343e-01 0.00000000e+00 
4.16666651e+00 3.33333343e-01 0.00000000e+00 
5.00000000e+00 3.33333343e-01 0.00000000e+00 
2.50000000e+00 6.66666687e-01 0.00000000e+00 
3.33333325e+00 6.66666687e-01 0.00000000e+00 
4.16666651e+00 6.66666687e-01 0.00000000e+00 
5.00000000e+00 6.66666687e-01 0.00000000e+00 
2.50000000e+00 1.00000000e+00 0.00000000e+00 
3.33333325e+00 1.00000000e+00 0.00000000e+00 
4.16666651e+00 1.00000000e+00 0.00000000e+00 
5.00000000e+00 1.00000000e+00 0.00000000e+00 

        </DataArray>
      </Points>
      <Cells>
        <DataArray type="Int32" Name="connectivity" format="ascii">
0 1 5 4
4 5 9 8
8 9 13 12
1 2 6 5
5 6 10 9
9 10 14 13
2 3 7 6
6 7 11 10
10 11 15 14

        </DataArray>
        <DataArray type="Int32" Name="offsets" format="ascii">
4 8 12 16 20 24 28 32 36 
        </DataArray>
        <DataArray type="UInt8" Name="types" format="ascii">
9 9 9 9 9 9 9 9 9 
        </DataArray>
      </Cells>
      <PointData>
        <DataArray type="Float64" Name="u">
          0.00000000e+00 0.00000000e+00 0.00000000e+00 0.00000000e+00 0.00000000e+00 -3.03083537e+00 -5.10326354e+00 -9.17282976e+00 0.00000000e+00 -5.27326367e+00 -9.11528180e+00 -1.54223676e+01 0.00000000e+00 -6.75897798e+00 -1.15301136e+01 -1.84362448e+01 
        </DataArray>
        <DataArray type="Float64" Name="v">
          0.00000000e+00 0.00000000e+00 0.00000000e+00 0.00000000e+00 0.00000000e+00 8.88884464e-01 9.53372306e-01 6.54982471e-01 0.00000000e+00 2.62698458e+00 2.62409490e+00 1.74356700e+00 0.00000000e+00 5.74779520e+00 5.37778598e+00 3.51199124e+00 
        </DataArray>
        <DataArray type="Float64" Name="p">
          -5.28716344e+03 -5.23669765e+03 -5.18623186e+03 -5.13576608e+03 -5.27366314e+03 -5.22311051e+03 -5.17255787e+03 -5.12200523e+03 -5.26016285e+03 -5.20952336e+03 -5.15888387e+03 -5.10824439e+03 -5.24666255e+03 -5.19593622e+03 -5.14520988e+03 -5.09448354e+03 
        </DataArray>
      </PointData>
    </Piece>
    <Piece NumberOfPoints="16" NumberOfCells="9">
      <Points>
        <DataArray type="Float64" NumberOfComponents="3" format="ascii">
          2.50000000e+00 1.00000000e+00 0.00000000e+00 
3.33333325e+00 1.00000000e+00 0.00000000e+00 
4.16666651e+00 1.00000000e+00 0.00000000e+00 
5.00000000e+00 1.00000000e+00 0.00000000e+00 
2.50000000e+00 1.33333337e+00 0.00000000e+00 
3.33333325e+00 1.33333337e+00 0.00000000e+00 
4.16666651e+00 1.33333337e+00 0.00000000e+00 
5.00000000e+00 1.33333337e+00 0.00000000e+00 
2.50000000e+00 1.66666663e+00 0.00000000e+00 
3.33333325e+00 1.66666663e+00 0.00000000e+00 
4.16666651e+00 1.66666663e+00 0.00000000e+00 
5.00000000e+00 1.66666663e+00 0.00000000e+00 
2.50000000e+00 2.00000000e+00 0.00000000e+00 
3.33333325e+00 2.00000000e+00 0.00000000e+00 
4.16666651e+00 2.00000000e+00 0.00000000e+00 
5.00000000e+00 2.00000000e+00 0.00000000e+00 

        </DataArray>
      </Points>
      <Cells>
        <DataArray type="Int32" Name="connectivity" format="ascii">
0 1 5 4
4 5 9 8
8 9 13 12
1 2 6 5
5 6 10 9
9 10 14 13
2 3 7 6
6 7 11 10
10 11 15 14

        </DataArray>
        <DataArray type="Int32" Name="offsets" format="ascii">
4 8 12 16 20 24 28 32 36 
        </DataArray>
        <DataArray type="UInt8" Name="types" format="ascii">
9 9 9 9 9 9 9 9 9 
        </DataArray>
      </Cells>
      <PointData>
        <DataArray type="Float64" Name="u">
          0.00000000e+00 -6.75897798e+00 -1.15301136e+01 -1.84362448e+01 0.00000000e+00 -7.48363896e+00 -1.19886794e+01 -1.80170299e+01 0.00000000e+00 -7.20334141e+00 -1.00473506e+01 -1.35479812e+01 0.00000000e+00 -5.34134278e+00 -4.99108855e+00 -4.31642939e+00 
        </DataArray>
        <DataArray type="Float64" Name="v">
          0.00000000e+00 5.74779520e+00 5.37778598e+00 3.51199124e+00 0.00000000e+00 9.50590595e+00 8.17435742e+00 4.84298443e+00 0.00000000e+00 1.23955467e+01 1.00829949e+01 5.24985688e+00 0.00000000e+00 1.53872897e+01 1.11182945e+01 4.35106511e+00 
        </DataArray>
        <DataArray type="Float64" Name="p">
          -5.23095631e+03 -5.18965136e+03 -5.14834640e+03 -5.10704145e+03 -5.32462819e+03 -5.26789440e+03 -5.21116061e+03 -5.15442682e+03 -5.41830008e+03 -5.34613745e+03 -5.27397481e+03 -5.20181218e+03 -5.51197196e+03 -5.42438049e+03 -5.33678902e+03 -5.24919755e+03 
        </DataArray>
      </PointData>
    </Piece>
    <Piece NumberOfPoints="16" NumberOfCells="9">
      <Points>
        <DataArray type="Float64" NumberOfComponents="3" format="ascii">
          2.50000000e+00 2.00000000e+00 0.00000000e+00 
3.33333325e+00 2.00000000e+00 0.00000000e+00 
4.16666651e+00 2.00000000e+00 0.00000000e+00 
5.00000000e+00 2.00000000e+00 0.00000000e+00 
2.50000000e+00 2.33333325e+00 0.00000000e+00 
3.33333325e+00 2.33333325e+00 0.00000000e+00 
4.16666651e+00 2.33333325e+00 0.00000000e+00 
5.00000000e+00 2.33333325e+00 0.00000000e+00 
2.50000000e+00 2.66666675e+00 0.00000000e+00 
3.33333325e+00 2.66666675e+00 0.00000000e+00 
4.16666651e+00 2.66666675e+00 0.00000000e+00 
5.00000000e+00 2.66666675e+00 0.00000000e+00 
2.50000000e+00 3.00000000e+00 0.00000000e+00 
3.33333325e+00 3.00000000e+00 0.00000000e+00 
4.16666651e+00 3.00000000e+00 0.00000000e+00 
5.00000000e+00 3.00000000e+00 0.00000000e+00 

        </DataArray>
      </Points>
      <Cells>
        <DataArray type="Int32" Name="connectivity" format="ascii">
0 1 5 4
4 5 9 8
8 9 13 12
1 2 6 5
5 6 10 9
9 10 14 13
2 3 7 6
6 7 11 10
10 11 15 14

        </DataArray>
        <DataArray type="Int32" Name="offsets" format="ascii">
4 8 12 16 20 24 28 32 36 
        </DataArray>
        <DataArray type="UInt8" Name="types" format="ascii">
9 9 9 9 9 9 9 9 9 
        </DataArray>
      </Cells>
      <PointData>
        <DataArray type="Float64" Name="u">
          0.00000000e+00 -5.34134278e+00 -4.99108855e+00 -4.31642939e+00 0.00000000e+00 -6.51727418e-01 3.86544516e+00 1.20222259e+01 0.00000000e+00 1.24522345e+01 2.08457728e+01 3.56626748e+01 0.00000000e+00 4.65911008e+01 5.21374856e+01 6.92570697e+01 
        </DataArray>
        <DataArray type="Float64" Name="v">
          0.00000000e+00 1.53872897e+01 1.11182945e+01 4.35106511e+00 0.00000000e+00 1.68353439e+01 9.11881731e+00 1.14971479e+00 0.00000000e+00 1.33358861e+01 6.15456473e+00 -1.47580826e+00 0.00000000e+00 2.07338125e+00 -7.24529518e-01 -3.37687433e+00 
        </DataArray>
        <DataArray type="Float64" Name="p">
          -5.47429113e+03 -5.43510733e+03 -5.39592354e+03 -5.35673974e+03 -5.81139024e+03 -5.60203169e+03 -5.39267315e+03 -5.18331461e+03 -6.14848935e+03 -5.76895605e+03 -5.38942276e+03 -5.00988947e+03 -6.48558845e+03 -5.93588042e+03 -5.38617238e+03 -4.83646434e+03 
        </DataArray>
      </PointData>
    </Piece>
    <Piece NumberOfPoints="16" NumberOfCells="9">
      <Points>
        <DataArray type="Float64" NumberOfComponents="3" format="ascii">
          2.50000000e+00 3.00000000e+00 0.00000000e+00 
3.33333325e+00 3.00000000e+00 0.00000000e+00 
4.16666651e+00 3.00000000e+00 0.00000000e+00 
5.00000000e+00 3.00000000e+00 0.00000000e+00 
2.50000000e+00 3.33333325e+00 0.00000000e+00 
3.33333325e+00 3.33333325e+00 0.00000000e+00 
4.16666651e+00 3.33333325e+00 0.00000000e+00 
5.00000000e+00 3.33333325e+00 0.00000000e+00 
2.50000000e+00 3.66666675e+00 0.00000000e+00 
3.33333325e+00 3.66666675e+00 0.00000000e+00 
4.16666651e+00 3.66666675e+00 0.00000000e+00 
5.00000000e+00 3.66666675e+00 0.00000000e+00 
2.50000000e+00 4.00000000e+00 0.00000000e+00 
3.33333325e+00 4.00000000e+00 0.00000000e+00 
4.16666651e+00 4.00000000e+00 0.00000000e+00 
5.00000000e+00 4.00000000e+00 0.00000000e+00 

        </DataArray>
      </Points>
      <Cells>
        <DataArray type="Int32" Name="connectivity" format="ascii">
0 1 5 4
4 5 9 8
8 9 13 12
1 2 6 5
5 6 10 9
9 10 14 13
2 3 7 6
6 7 11 10
10 11 15 14

        </DataArray>
        <DataArray type="Int32" Name="offsets" format="ascii">
4 8 12 16 20 24 28 32 36 
        </DataArray>
        <DataArray type="UInt8" Name="types" format="ascii">
9 9 9 9 9 9 9 9 9 
        </DataArray>
      </Cells>
      <PointData>
        <DataArray type="Float64" Name="u">
          0.00000000e+00 4.65911008e+01 5.21374856e+01 6.92570697e+01 9.10786937e+01 9.60356009e+01 1.00594127e+02 1.06205075e+02 1.55823979e+02 1.51241500e+02 1.51084383e+02 1.48334578e+02 1.98757336e+02 1.91606017e+02 1.90224311e+02 1.82451486e+02 
        </DataArray>
        <DataArray type="Float64" Name="v">
          0.00000000e+00 2.07338125e+00 -7.24529518e-01 -3.37687433e+00 -1.69856287e+00 -6.63906118e+00 -5.08962477e+00 -2.41299427e+00 -8.70744203e-01 -6.93888538e+00 -6.73223540e+00 -2.99953963e+00 -8.28792679e-01 -4.52971633e+00 -4.26155609e+00 -2.47257235e+00 
        </DataArray>
        <DataArray type="Float64" Name="p">
          -6.55034062e+03 -5.90725380e+03 -5.26416698e+03 -4.62108016e+03 -6.05227851e+03 -5.66793668e+03 -5.28359485e+03 -4.89925302e+03 -5.55421640e+03 -5.42861956e+03 -5.30302272e+03 -5.17742588e+03 -5.05615428e+03 -5.18930243e+03 -5.32245058e+03 -5.45559873e+03 
        </DataArray>
      </PointData>
    </Piece>
    <Piece NumberOfPoints="16" NumberOfCells="9">
      <Points>
        <DataArray type="Float64" NumberOfComponents="3" format="ascii">
          2.50000000e+00 4.00000000e+00 0.00000000e+00 
3.33333325e+00 4.00000000e+00 0.00000000e+00 
4.16666651e+00 4.00000000e+00 0.00000000e+00 
5.00000000e+00 4.00000000e+00 0.00000000e+00 
2.50000000e+00 4.33333349e+00 0.00000000e+00 
3.33333325e+00 4.33333349e+00 0.00000000e+00 
4.16666651e+00 4.33333349e+00 0.00000000e+00 
5.00000000e+00 4.33333349e+00 0.00000000e+00 
2.50000000e+00 4.66666651e+00 0.00000000e+00 
3.33333325e+00 4.66666651e+00 0.00000000e+00 
4.16666651e+00 4.66666651e+00 0.00000000e+00 
5.00000000e+00 4.66666651e+00 0.00000000e+00 
2.50000000e+00 5.00000000e+00 0.00000000e+00 
3.33333325e+00 5.00000000e+00 0.00000000e+00 
4.16666651e+00 5.00000000e+00 0.00000000e+00 
5.00000000e+00 5.00000000e+00 0.00000000e+00 

        </DataArray>
      </Points>
      <Cells>
        <DataArray type="Int32" Name="connectivity" format="ascii">
0 1 5 4
4 5 9 8
8 9 13 12
1 2 6 5
5 6 10 9
9 10 14 13
2 3 7 6
6 7 11 10
10 11 15 14

        </DataArray>
        <DataArray type="Int32" Name="offsets" format="ascii">
4 8 12 16 20 24 28 32 36 
        </DataArray>
        <DataArray type="UInt8" Name="types" format="ascii">
9 9 9 9 9 9 9 9 9 
        </DataArray>
      </Cells>
      <PointData>
        <DataArray type="Float64" Name="u">
          1.98757336e+02 1.91606017e+02 1.90224311e+02 1.82451486e+02 2.20592436e+02 2.12491222e+02 2.09995503e+02 2.01298401e+02 2.20592436e+02 2.12491222e+02 2.09995503e+02 2.01298401e+02 1.98757336e+02 1.91606017e+02 1.90224311e+02 1.82451486e+02 
        </DataArray>
        <DataArray type="Float64" Name="v">
          -8.28792679e-01 -4.52971633e+00 -4.26155609e+00 -2.47257235e+00 3.70552413e-02 -5.49532235e-01 -1.26603403e+00 -1.17464797e+00 -3.70552421e-02 5.49532234e-01 1.26603403e+00 1.17464797e+00 8.28792678e-01 4.52971633e+00 4.26155609e+00 2.47257235e+00 
        </DataArray>
        <DataArray type="Float64" Name="p">
          -4.88863417e+03 -5.11014379e+03 -5.33165341e+03 -5.55316303e+03 -4.88863417e+03 -5.11014379e+03 -5.33165341e+03 -5.55316303e+03 -4.88863417e+03 -5.11014379e+03 -5.33165341e+03 -5.55316303e+03 -4.88863417e+03 -5.11014379e+03 -5.33165341e+03 -5.55316303e+03 
        </DataArray>
      </PointData>
    </Piece>
    <Piece NumberOfPoints="16" NumberOfCells="9">
      <Points>
        <DataArray type="Float64" NumberOfComponents="3" format="ascii">
          2.50000000e+00 5.00000000e+00 0.00000000e+00 
3.33333325e+00 5.00000000e+00 0.00000000e+00 
4.16666651e+00 5.00000000e+00 0.00000000e+00 
5.00000000e+00 5.00000000e+00 0.00000000e+00 
2.50000000e+00 5.33333349e+00 0.00000000e+00 
3.33333325e+00 5.33333349e+00 0.00000000e+00 
4.16666651e+00 5.33333349e+00 0.00000000e+00 
5.00000000e+00 5.33333349e+00 0.00000000e+00 
2.50000000e+00 5.66666651e+00 0.00000000e+00 
3.33333325e+00 5.66666651e+00 0.00000000e+00 
4.16666651e+00 5.66666651e+00 0.00000000e+00 
5.00000000e+00 5.66666651e+00 0.00000000e+00 
2.50000000e+00 6.00000000e+00 0.00000000e+00 
3.33333325e+00 6.00000000e+00 0.00000000e+00 
4.16666651e+00 6.00000000e+00 0.00000000e+00 
5.00000000e+00 6.00000000e+00 0.00000000e+00 

        </DataArray>
      </Points>
      <Cells>
        <DataArray type="Int32" Name="connectivity" format="ascii">
0 1 5 4
4 5 9 8
8 9 13 12
1 2 6 5
5 6 10 9
9 10 14 13
2 3 7 6
6 7 11 10
10 11 15 14

        </DataArray>
        <DataArray type="Int32" Name="offsets" format="ascii">
4 8 12 16 20 24 28 32 36 
        </DataArray>
        <DataArray type="UInt8" Name="types" format="ascii">
9 9 9 9 9 9 9 9 9 
        </DataArray>
      </Cells>
      <PointData>
        <DataArray type="Float64" Name="u">
          1.98757336e+02 1.91606017e+02 1.90224311e+02 1.82451486e+02 1.55823979e+02 1.51241500e+02 1.51084383e+02 1.48334578e+02 9.10786937e+01 9.60356009e+01 1.00594127e+02 1.06205075e+02 0.00000000e+00 4.65911008e+01 5.21374856e+01 6.92570697e+01 
        </DataArray>
        <DataArray type="Float64" Name="v">
          8.28792678e-01 4.52971633e+00 4.26155609e+00 2.47257235e+00 8.70744203e-01 6.93888537e+00 6.73223540e+00 2.99953963e+00 1.69856287e+00 6.63906118e+00 5.08962477e+00 2.41299427e+00 0.00000000e+00 -2.07338125e+00 7.24529518e-01 3.37687433e+00 
        </DataArray>
        <DataArray type="Float64" Name="p">
          -5.05615428e+03 -5.18930243e+03 -5.32245058e+03 -5.45559873e+03 -5.55421640e+03 -5.42861956e+03 -5.30302272e+03 -5.17742588e+03 -6.05227851e+03 -5.66793668e+03 -5.28359485e+03 -4.89925302e+03 -6.55034062e+03 -5.90725380e+03 -5.26416698e+03 -4.62108016e+03 
        </DataArray>
      </PointData>
    </Piece>
    <Piece NumberOfPoints="16" NumberOfCells="9">
      <Points>
        <DataArray type="Float64" NumberOfComponents="3" format="ascii">
          2.50000000e+00 6.00000000e+00 0.00000000e+00 
3.33333325e+00 6.00000000e+00 0.00000000e+00 
4.16666651e+00 6.00000000e+00 0.00000000e+00 
5.00000000e+00 6.00000000e+00 0.00000000e+00 
2.50000000e+00 6.33333349e+00 0.00000000e+00 
3.33333325e+00 6.33333349e+00 0.00000000e+00 
4.16666651e+00 6.33333349e+00 0.00000000e+00 
5.00000000e+00 6.33333349e+00 0.00000000e+00 
2.50000000e+00 6.66666651e+00 0.00000000e+00 
3.33333325e+00 6.66666651e+00 0.00000000e+00 
4.16666651e+00 6.66666651e+00 0.00000000e+00 
5.00000000e+00 6.66666651e+00 0.00000000e+00 
2.50000000e+00 7.00000000e+00 0.00000000e+00 
3.33333325e+00 7.00000000e+00 0.00000000e+00 
4.16666651e+00 7.00000000e+00 0.00000000e+00 
5.00000000e+00 7.00000000e+00 0.00000000e+00 

        </DataArray>
      </Points>
      <Cells>
        <DataArray type="Int32" Name="connectivity" format="ascii">
0 1 5 4
4 5 9 8
8 9 13 12
1 2 6 5
5 6 10 9
9 10 14 13
2 3 7 6
6 7 11 10
10 11 15 14

        </DataArray>
        <DataArray type="Int32" Name="offsets" format="ascii">
4 8 12 16 20 24 28 32 36 
        </DataArray>
        <DataArray type="UInt8" Name="types" format="ascii">
9 9 9 9 9 9 9 9 9 
        </DataArray>
      </Cells>
      <PointData>
        <DataArray type="Float64" Name="u">
          0.00000000e+00 4.65911008e+01 5.21374856e+01 6.92570697e+01 0.00000000e+00 1.24522345e+01 2.08457728e+01 3.56626748e+01 0.00000000e+00 -6.51727418e-01 3.86544516e+00 1.20222259e+01 0.00000000e+00 -5.34134278e+00 -4.99108855e+00 -4.31642939e+00 
        </DataArray>
        <DataArray type="Float64" Name="v">
          0.00000000e+00 -2.07338125e+00 7.24529518e-01 3.37687433e+00 0.00000000e+00 -1.33358861e+01 -6.15456473e+00 1.47580826e+00 0.00000000e+00 -1.68353439e+01 -9.11881731e+00 -1.14971479e+00 0.00000000e+00 -1.53872897e+01 -1.11182945e+01 -4.35106511e+00 
        </DataArray>
        <DataArray type="Float64" Name="p">
          -6.48558845e+03 -5.93588042e+03 -5.38617238e+03 -4.83646434e+03 -6.14848934e+03 -5.76895605e+03 -5.38942276e+03 -5.00988947e+03 -5.81139024e+03 -5.60203169e+03 -5.39267315e+03 -5.18331461e+03 -5.47429113e+03 -5.43510733e+03 -5.39592354e+03 -5.35673974e+03 
        </DataArray>
      </PointData>
    </Piece>
    <Piece NumberOfPoints="16" NumberOfCells="9">
      <Points>
        <DataArray type="Float64" NumberOfComponents="3" format="ascii">
          2.50000000e+00 7.00000000e+00 0.00000000e+00 
3.33333325e+00 7.00000000e+00 0.00000000e+00 
4.16666651e+00 7.00000000e+00 0.00000000e+00 
5.00000000e+00 7.00000000e+00 0.00000000e+00 
2.50000000e+00 7.33333349e+00 0.00000000e+00 
3.33333325e+00 7.33333349e+00 0.00000000e+00 
4.16666651e+00 7.33333349e+00 0.00000000e+00 
5.00000000e+00 7.33333349e+00 0.00000000e+00 
2.50000000e+00 7.66666651e+00 0.00000000e+00 
3.33333325e+00 7.66666651e+00 0.00000000e+00 
4.16666651e+00 7.66666651e+00 0.00000000e+00 
5.00000000e+00 7.66666651e+00 0.00000000e+00 
2.50000000e+00 8.00000000e+00 0.00000000e+00 
3.33333325e+00 8.00000000e+00 0.00000000e+00 
4.16666651e+00 8.00000000e+00 0.00000000e+00 
5.00000000e+00 8.00000000e+00 0.00000000e+00 

        </DataArray>
      </Points>
      <Cells>
        <DataArray type="Int32" Name="connectivity" format="ascii">
0 1 5 4
4 5 9 8
8 9 13 12
1 2 6 5
5 6 10 9
9 10 14 13
2 3 7 6
6 7 11 10
10 11 15 14

        </DataArray>
        <DataArray type="Int32" Name="offsets" format="ascii">
4 8 12 16 20 24 28 32 36 
        </DataArray>
        <DataArray type="UInt8" Name="types" format="ascii">
9 9 9 9 9 9 9 9 9 
        </DataArray>
      </Cells>
      <PointData>
        <DataArray type="Float64" Name="u">
          0.00000000e+00 -5.34134278e+00 -4.99108855e+00 -4.31642939e+00 0.00000000e+00 -7.20334141e+00 -1.00473506e+01 -1.35479812e+01 0.00000000e+00 -7.48363896e+00 -1.19886794e+01 -1.80170299e+01 0.00000000e+00 -6.75897798e+00 -1.15301136e+01 -1.84362448e+01 
        </DataArray>
        <DataArray type="Float64" Name="v">
          0.00000000e+00 -1.53872897e+01 -1.11182945e+01 -4.35106511e+00 0.00000000e+00 -1.23955467e+01 -1.00829949e+01 -5.24985688e+00 0.00000000e+00 -9.50590595e+00 -8.17435742e+00 -4.84298443e+00 0.00000000e+00 -5.74779520e+00 -5.37778598e+00 -3.51199124e+00 
        </DataArray>
        <DataArray type="Float64" Name="p">
          -5.51197196e+03 -5.42438049e+03 -5.33678902e+03 -5.24919755e+03 -5.41830008e+03 -5.34613745e+03 -5.27397481e+03 -5.20181218e+03 -5.32462819e+03 -5.26789440e+03 -5.21116061e+03 -5.15442682e+03 -5.23095631e+03 -5.18965136e+03 -5.14834640e+03 -5.10704145e+03 
        </DataArray>
      </PointData>
    </Piece>
    <Piece NumberOfPoints="16" NumberOfCells="9">
      <Points>
        <DataArray type="Float64" NumberOfComponents="3" format="ascii">
          2.50000000e+00 8.00000000e+00 0.00000000e+00 
3.33333325e+00 8.00000000e+00 0.00000000e+00 
4.16666651e+00 8.00000000e+00 0.00000000e+00 
5.00000000e+00 8.00000000e+00 0.00000000e+00 
2.50000000e+00 8.33333302e+00 0.00000000e+00 
3.33333325e+00 8.33333302e+00 0.00000000e+00 
4.16666651e+00 8.33333302e+00 0.00000000e+00 
5.00000000e+00 8.33333302e+00 0.00000000e+00 
2.50000000e+00 8.66666698e+00 0.00000000e+00 
3.33333325e+00 8.66666698e+00 0.00000000e+00 
4.16666651e+00 8.66666698e+00 0.00000000e+00 
5.00000000e+00 8.66666698e+00 0.00000000e+00 
2.50000000e+00 9.00000000e+00 0.00000000e+00 
3.33333325e+00 9.00000000e+00 0.00000000e+00 
4.16666651e+00 9.00000000e+00 0.00000000e+00 
5.00000000e+00 9.00000000e+00 0.00000000e+00 

        </DataArray>
      </Points>
      <Cells>
        <DataArray type="Int32" Name="connectivity" format="ascii">
0 1 5 4
4 5 9 8
8 9 13 12
1 2 6 5
5 6 10 9
9 10 14 13
2 3 7 6
6 7 11 10
10 11 15 14

        </DataArray>
        <DataArray type="Int32" Name="offsets" format="ascii">
4 8 12 16 20 24 28 32 36 
        </DataArray>
        <DataArray type="UInt8" Name="types" format="ascii">
9 9 9 9 9 9 9 9 9 
        </DataArray>
      </Cells>
      <PointData>
        <DataArray type="Float64" Name="u">
          0.00000000e+00 -6.75897798e+00 -1.15301136e+01 -1.84362448e+01 0.00000000e+00 -5.27326367e+00 -9.11528180e+00 -1.54223676e+01 0.00000000e+00 -3.03083537e+00 -5.10326354e+00 -9.17282976e+00 0.00000000e+00 0.00000000e+00 0.00000000e+00 0.00000000e+00 
        </DataArray>
        <DataArray type="Float64" Name="v">
          0.00000000e+00 -5.74779520e+00 -5.37778598e+00 -3.51199124e+00 0.00000000e+00 -2.62698458e+00 -2.62409490e+00 -1.74356700e+00 0.00000000e+00 -8.88884464e-01 -9.53372306e-01 -6.54982471e-01 0.00000000e+00 0.00000000e+00 0.00000000e+00 0.00000000e+00 
        </DataArray>
        <DataArray type="Float64" Name="p">
          -5.24666255e+03 -5.19593622e+03 -5.14520988e+03 -5.09448354e+03 -5.26016285e+03 -5.20952336e+03 -5.15888387e+03 -5.10824439e+03 -5.27366314e+03 -5.22311051e+03 -5.17255787e+03 -5.12200523e+03 -5.28716344e+03 -5.23669765e+03 -5.18623186e+03 -5.13576608e+03 
        </DataArray>
      </PointData>
    </Piece>
    <Piece NumberOfPoints="16" NumberOfCells="9">
      <Points>
        <DataArray type="Float64" NumberOfComponents="3" format="ascii">
          5.00000000e+00 0.00000000e+00 0.00000000e+00 
5.83333349e+00 0.00000000e+00 0.00000000e+00 
6.66666651e+00 0.00000000e+00 0.00000000e+00 
7.50000000e+00 0.00000000e+00 0.00000000e+00 
5.00000000e+00 3.33333343e-01 0.00000000e+00 
5.83333349e+00 3.33333343e-01 0.00000000e+00 
6.66666651e+00 3.33333343e-01 0.00000000e+00 
7.50000000e+00 3.33333343e-01 0.00000000e+00 
5.00000000e+00 6.66666687e-01 0.00000000e+00 
5.83333349e+00 6.66666687e-01 0.00000000e+00 
6.66666651e+00 6.66666687e-01 0.00000000e+00 
7.50000000e+00 6.66666687e-01 0.00000000e+00 
5.00000000e+00 1.00000000e+00 0.00000000e+00 
5.83333349e+00 1.00000000e+00 0.00000000e+00 
6.66666651e+00 1.00000000e+00 0.00000000e+00 
7.50000000e+00 1.00000000e+00 0.00000000e+00 

        </DataArray>
      </Points>
      <Cells>
        <DataArray type="Int32" Name="connectivity" format="ascii">
0 1 5 4
4 5 9 8
8 9 13 12
1 2 6 5
5 6 10 9
9 10 14 13
2 3 7 6
6 7 11 10
10 11 15 14

        </DataArray>
        <DataArray type="Int32" Name="offsets" format="ascii">
4 8 12 16 20 24 28 32 36 
        </DataArray>
        <DataArray type="UInt8" Name="types" format="ascii">
9 9 9 9 9 9 9 9 9 
        </DataArray>
      </Cells>
      <PointData>
        <DataArray type="Float64" Name="u">