<?xml version="1.0"?>
<VTKFile type="UnstructuredGrid" version="0.1" byte_order="LittleEndian">
  <UnstructuredGrid>
    <Piece NumberOfPoints="16" NumberOfCells="9">
      <Points>
        <DataArray type="Float64" NumberOfComponents="3" format="ascii">
          0.00000000e+00 3.00000000e+00 0.00000000e+00 
8.33333313e-01 3.00000000e+00 0.00000000e+00 
1.66666663e+00 3.00000000e+00 0.00000000e+00 
2.50000000e+00 3.00000000e+00 0.00000000e+00 
0.00000000e+00 3.33333325e+00 0.00000000e+00 
8.33333313e-01 3.33333325e+00 0.00000000e+00 
1.66666663e+00 3.33333325e+00 0.00000000e+00 
2.50000000e+00 3.33333325e+00 0.00000000e+00 
0.00000000e+00 3.66666675e+00 0.00000000e+00 
8.33333313e-01 3.66666675e+00 0.00000000e+00 
1.66666663e+00 3.66666675e+00 0.00000000e+00 
2.50000000e+00 3.66666675e+00 0.00000000e+00 
0.00000000e+00 4.00000000e+00 0.00000000e+00 
8.33333313e-01 4.00000000e+00 0.00000000e+00 
1.66666663e+00 4.00000000e+00 0.00000000e+00 
2.50000000e+00 4.00000000e+00 0.00000000e+00 

        </DataArray>
      </Points>
      <Cells>
        <DataArray type="Int32" Name="connectivity" format="ascii">
0 1 5 4
4 5 9 8
8 9 13 12
1 2 6 5
5 6 10 9
9 10 14 13
2 3 7 6
6 7 11 10
10 11 15 14

        </DataArray>
        <DataArray type="Int32" Name="offsets" format="ascii">
4 8 12 16 20 24 28 32 36 
        </DataArray>
        <DataArray type="UInt8" Name="types" format="ascii">
9 9 9 9 9 9 9 9 9 
        </DataArray>
      </Cells>
      <PointData>
        <DataArray type="Float64" Name="u">
          0.00000000e+00 0.00000000e+00 0.00000000e+00 0.00000000e+00 8.88888889e+01 8.94682371e+01 8.94966915e+01 9.10608807e+01 1.55555556e+02 1.55372244e+02 1.56257997e+02 1.55822016e+02 2.00000000e+02 1.98990720e+02 2.00360386e+02 1.98767362e+02 
        </DataArray>
        <DataArray type="Float64" Name="v">
          0.00000000e+00 0.00000000e+00 0.00000000e+00 0.00000000e+00 0.00000000e+00 -2.43004023e-01 -3.97022651e-02 -1.68443624e+00 0.00000000e+00 -2.12453278e-01 -2.38791650e-01 -8.58206218e-01 0.00000000e+00 -3.01541876e-01 -2.35663120e-01 -8.21472549e-01 
        </DataArray>
        <DataArray type="Float64" Name="p">
          -1.53442679e+03 -2.93035856e+03 -4.32629033e+03 -5.72222210e+03 -1.54445437e+03 -2.92765655e+03 -4.31085874e+03 -5.69406092e+03 -1.55448194e+03 -2.92495455e+03 -4.29542715e+03 -5.66589975e+03 -1.56450952e+03 -2.92225254e+03 -4.27999556e+03 -5.63773858e+03 
        </DataArray>
      </PointData>
    </Piece>
    <Piece NumberOfPoints="16" NumberOfCells="9">
      <Points>
        <DataArray type="Float64" NumberOfComponents="3" format="ascii">
          0.00000000e+00 4.00000000e+00 0.00000000e+00 
8.33333313e-01 4.00000000e+00 0.00000000e+00 
1.66666663e+00 4.00000000e+00 0.00000000e+00 
2.50000000e+00 4.00000000e+00 0.00000000e+00 
0.00000000e+00 4.33333349e+00 0.00000000e+00 
8.33333313e-01 4.33333349e+00 0.00000000e+00 
1.66666663e+00 4.33333349e+00 0.00000000e+00 
2.50000000e+00 4.33333349e+00 0.00000000e+00 
0.00000000e+00 4.66666651e+00 0.00000000e+00 
8.33333313e-01 4.66666651e+00 0.00000000e+00 
1.66666663e+00 4.66666651e+00 0.00000000e+00 
2.50000000e+00 4.66666651e+00 0.00000000e+00 
0.00000000e+00 5.00000000e+00 0.00000000e+00 
8.33333313e-01 5.00000000e+00 0.00000000e+00 
1.66666663e+00 5.00000000e+00 0.00000000e+00 
2.50000000e+00 5.00000000e+00 0.00000000e+00 

        </DataArray>
      </Points>
      <Cells>
        <DataArray type="Int32" Name="connectivity" format="ascii">
0 1 5 4
4 5 9 8
8 9 13 12
1 2 6 5
5 6 10 9
9 10 14 13
2 3 7 6
6 7 11 10
10 11 15 14

        </DataArray>
        <DataArray type="Int32" Name="offsets" format="ascii">
4 8 12 16 20 24 28 32 36 
        </DataArray>
        <DataArray type="UInt8" Name="types" format="ascii">
9 9 9 9 9 9 9 9 9 
        </DataArray>
      </Cells>
      <PointData>
        <DataArray type="Float64" Name="u">
          2.00000000e+02 1.98990720e+02 2.00360386e+02 1.98767362e+02 2.22222222e+02 2.20969019e+02 2.22201741e+02 2.20605529e+02 2.22222222e+02 2.20969019e+02 2.22201741e+02 2.20605529e+02 2.00000000e+02 1.98990720e+02 2.00360386e+02 1.98767362e+02 
        </DataArray>
        <DataArray type="Float64" Name="v">
          0.00000000e+00 -3.01541876e-01 -2.35663120e-01 -8.21472549e-01 0.00000000e+00 -1.30000342e-02 -1.01832621e-01 3.76163770e-02 0.00000000e+00 1.30000329e-02 1.01832619e-01 -3.76163808e-02 0.00000000e+00 3.01541875e-01 2.35663118e-01 8.21472546e-01 
        </DataArray>
        <DataArray type="Float64" Name="p">
          -1.54337141e+03 -2.90838601e+03 -4.27340061e+03 -5.63841522e+03 -1.54337141e+03 -2.90838601e+03 -4.27340061e+03 -5.63841522e+03 -1.54337141e+03 -2.90838601e+03 -4.27340061e+03 -5.63841522e+03 -1.54337141e+03 -2.90838601e+03 -4.27340061e+03 -5.63841522e+03 
        </DataArray>
      </PointData>
    </Piece>
    <Piece NumberOfPoints="16" NumberOfCells="9">
      <Points>
        <DataArray type="Float64" NumberOfComponents="3" format="ascii">
          0.00000000e+00 5.00000000e+00 0.00000000e+00 
8.33333313e-01 5.00000000e+00 0.00000000e+00 
1.66666663e+00 5.00000000e+00 0.00000000e+00 
2.50000000e+00 5.00000000e+00 0.00000000e+00 
0.00000000e+00 5.33333349e+00 0.00000000e+00 
8.33333313e-01 5.33333349e+00 0.00000000e+00 
1.66666663e+00 5.33333349e+00 0.00000000e+00 
2.50000000e+00 5.33333349e+00 0.00000000e+00 
0.00000000e+00 5.66666651e+00 0.00000000e+00 
8.33333313e-01 5.66666651e+00 0.00000000e+00 
1.66666663e+00 5.66666651e+00 0.00000000e+00 
2.50000000e+00 5.66666651e+00 0.00000000e+00 
0.00000000e+00 6.00000000e+00 0.00000000e+00 
8.33333313e-01 6.00000000e+00 0.00000000e+00 
1.66666663e+00 6.00000000e+00 0.00000000e+00 
2.50000000e+00 6.00000000e+00 0.00000000e+00 

        </DataArray>
      </Points>
      <Cells>
        <DataArray type="Int32" Name="connectivity" format="ascii">
0 1 5 4
4 5 9 8
8 9 13 12
1 2 6 5
5 6 10 9
9 10 14 13
2 3 7 6
6 7 11 10
10 11 15 14

        </DataArray>
        <DataArray type="Int32" Name="offsets" format="ascii">
4 8 12 16 20 24 28 32 36 
        </DataArray>
        <DataArray type="UInt8" Name="types" format="ascii">
9 9 9 9 9 9 9 9 9 
        </DataArray>
      </Cells>
      <PointData>
        <DataArray type="Float64" Name="u">
          2.00000000e+02 1.98990720e+02 2.00360386e+02 1.98767362e+02 1.55555556e+02 1.55372244e+02 1.56257997e+02 1.55822016e+02 8.88888889e+01 8.94682371e+01 8.94966915e+01 9.10608807e+01 0.00000000e+00 0.00000000e+00 0.00000000e+00 0.00000000e+00 
        </DataArray>
        <DataArray type="Float64" Name="v">
          0.00000000e+00 3.01541875e-01 2.35663118e-01 8.21472546e-01 0.00000000e+00 2.12453278e-01 2.38791649e-01 8.58206216e-01 0.00000000e+00 2.43004022e-01 3.97022643e-02 1.68443624e+00 0.00000000e+00 0.00000000e+00 0.00000000e+00 0.00000000e+00 
        </DataArray>
        <DataArray type="Float64" Name="p">
          -1.56450952e+03 -2.92225254e+03 -4.27999556e+03 -5.63773857e+03 -1.55448194e+03 -2.92495454e+03 -4.29542715e+03 -5.66589975e+03 -1.54445437e+03 -2.92765655e+03 -4.31085874e+03 -5.69406092e+03 -1.53442679e+03 -2.93035856e+03 -4.32629033e+03 -5.72222210e+03 
        </DataArray>
      </PointData>
    </Piece>
    <Piece NumberOfPoints="16" NumberOfCells="9">
      <Points>
        <DataArray type="Float64" NumberOfComponents="3" format="ascii">
          2.50000000e+00 0.00000000e+00 0.00000000e+00 
3.33333325e+00 0.00000000e+00 0.00000000e+00 
4.16666651e+00 0.00000000e+00 0.00000000e+00 
5.00000000e+00 0.00000000e+00 0.00000000e+00 
2.50000000e+00 3.33333343e-01 0.00000000e+00 
3.33333325e+00 3.33333343e-01 0.00000000e+00 
4.16666651e+00 3.33333343e-01 0.00000000e+00 
5.00000000e+00 3.33333343e-01 0.00000000e+00 
2.50000000e+00 6.66666687e-01 0.00000000e+00 
3.33333325e+00 6.66666687e-01 0.00000000e+00 
4.16666651e+00 6.66666687e-01 0.00000000e+00 
5.00000000e+00 6.66666687e-01 0.00000000e+00 
2.50000000e+00 1.00000000e+00 0.00000000e+00 
3.33333325e+00 1.00000000e+00 0.00000000e+00 
4.16666651e+00 1.00000000e+00 0.00000000e+00 
5.00000000e+00 1.00000000e+00 0.00000000e+00 

        </DataArray>
      </Points>
      <Cells>
        <DataArray type="Int32" Name="connectivity" format="ascii">
0 1 5 4
4 5 9 8
8 9 13 12
1 2 6 5
5 6 10 9
9 10 14 13
2 3 7 6
6 7 11 10
10 11 15 14

        </DataArray>
        <DataArray type="Int32" Name="offsets" format="ascii">
4 8 12 16 20 24 28 32 36 
        </DataArray>
        <DataArray type="UInt8" Name="types" format="ascii">
9 9 9 9 9 9 9 9 9 
        </DataArray>
      </Cells>
      <PointData>
        <DataArray type="Float64" Name="u">
          0.00000000e+00 0.00000000e+00 0.00000000e+00 0.00000000e+00 0.00000000e+00 -3.01745051e+00 -5.08849616e+00 -9.14616031e+00 0.00000000e+00 -5.25354847e+00 -9.09415840e+00 -1.53882217e+01 0.00000000e+00 -6.73787393e+00 -1.15110628e+01 -1.84083345e+01 
        </DataArray>
        <DataArray type="Float64" Name="v">
          0.00000000e+00 0.00000000e+00 0.00000000e+00 0.00000000e+00 0.00000000e+00 8.85519619e-01 9.50111392e-01 6.55129541e-01 0.00000000e+00 2.61835459e+00 2.61699301e+00 1.74444373e+00 0.00000000e+00 5.73079498e+00 5.36594852e+00 3.51436169e+00 
        </DataArray>
        <DataArray type="Float64" Name="p">
          -5.30712182e+03 -5.25748693e+03 -5.20785203e+03 -5.15821714e+03 -5.29375165e+03 -5.24400740e+03 -5.19426315e+03 -5.14451890e+03 -5.28038148e+03 -5.23052787e+03 -5.18067426e+03 -5.13082065e+03 -5.26701130e+03 -5.21704834e+03 -5.16708537e+03 -5.11712241e+03 
        </DataArray>
      </PointData>
    </Piece>
    <Piece NumberOfPoints="16" NumberOfCells="9">
      <Points>
        <DataArray type="Float64" NumberOfComponents="3" format="ascii">
          2.50000000e+00 1.00000000e+00 0.00000000e+00 
3.33333325e+00 1.00000000e+00 0.00000000e+00 
4.16666651e+00 1.00000000e+00 0.00000000e+00 
5.00000000e+00 1.00000000e+00 0.00000000e+00 
2.50000000e+00 1.33333337e+00 0.00000000e+00 
3.33333325e+00 1.33333337e+00 0.00000000e+00 
4.16666651e+00 1.33333337e+00 0.00000000e+00 
5.00000000e+00 1.33333337e+00 0.00000000e+00 
2.50000000e+00 1.66666663e+00 0.00000000e+00 
3.33333325e+00 1.66666663e+00 0.00000000e+00 
4.16666651e+00 1.66666663e+00 0.00000000e+00 
5.00000000e+00 1.66666663e+00 0.00000000e+00 
2.50000000e+00 2.00000000e+00 0.00000000e+00 
3.33333325e+00 2.00000000e+00 0.00000000e+00 
4.16666651e+00 2.00000000e+00 0.00000000e+00 
5.00000000e+00 2.00000000e+00 0.00000000e+00 

        </DataArray>
      </Points>
      <Cells>
        <DataArray type="Int32" Name="connectivity" format="ascii">
0 1 5 4
4 5 9 8
8 9 13 12
1 2 6 5
5 6 10 9
9 10 14 13
2 3 7 6
6 7 11 10
10 11 15 14

        </DataArray>
        <DataArray type="Int32" Name="offsets" format="ascii">
4 8 12 16 20 24 28 32 36 
        </DataArray>
        <DataArray type="UInt8" Name="types" format="ascii">
9 9 9 9 9 9 9 9 9 
        </DataArray>
      </Cells>
      <PointData>
        <DataArray type="Float64" Name="u">
          0.00000000e+00 -6.73787393e+00 -1.15110628e+01 -1.84083345e+01 0.00000000e+00 -7.46466458e+00 -1.19785571e+01 -1.80066710e+01 0.00000000e+00 -7.19066443e+00 -1.00525066e+01 -1.35644317e+01 0.00000000e+00 -5.34119946e+00 -5.01756009e+00 -4.36661109e+00 
        </DataArray>
        <DataArray type="Float64" Name="v">
          0.00000000e+00 5.73079498e+00 5.36594852e+00 3.51436169e+00 0.00000000e+00 9.48171959e+00 8.16126636e+00 4.85000295e+00 0.00000000e+00 1.23679626e+01 1.00714297e+01 5.26377176e+00 0.00000000e+00 1.53601339e+01 1.11145780e+01 4.37575813e+00 
        </DataArray>
        <DataArray type="Float64" Name="p">
          -5.25141815e+03 -5.21077771e+03 -5.17013726e+03 -5.12949682e+03 -5.34420465e+03 -5.28836758e+03 -5.23253052e+03 -5.17669345e+03 -5.43699115e+03 -5.36595746e+03 -5.29492377e+03 -5.22389008e+03 -5.52977765e+03 -5.44354734e+03 -5.35731703e+03 -5.27108671e+03 
        </DataArray>
      </PointData>
    </Piece>
    <Piece NumberOfPoints="16" NumberOfCells="9">
      <Points>
        <DataArray type="Float64" NumberOfComponents="3" format="ascii">
          2.50000000e+00 2.00000000e+00 0.00000000e+00 
3.33333325e+00 2.00000000e+00 0.00000000e+00 
4.16666651e+00 2.00000000e+00 0.00000000e+00 
5.00000000e+00 2.00000000e+00 0.00000000e+00 
2.50000000e+00 2.33333325e+00 0.00000000e+00 
3.33333325e+00 2.33333325e+00 0.00000000e+00 
4.16666651e+00 2.33333325e+00 0.00000000e+00 
5.00000000e+00 2.33333325e+00 0.00000000e+00 
2.50000000e+00 2.66666675e+00 0.00000000e+00 
3.33333325e+00 2.66666675e+00 0.00000000e+00 
4.16666651e+00 2.66666675e+00 0.00000000e+00 
5.00000000e+00 2.66666675e+00 0.00000000e+00 
2.50000000e+00 3.00000000e+00 0.00000000e+00 
3.33333325e+00 3.00000000e+00 0.00000000e+00 
4.16666651e+00 3.00000000e+00 0.00000000e+00 
5.00000000e+00 3.00000000e+00 0.00000000e+00 

        </DataArray>
      </Points>
      <Cells>
        <DataArray type="Int32" Name="connectivity" format="ascii">
0 1 5 4
4 5 9 8
8 9 13 12
1 2 6 5
5 6 10 9
9 10 14 13
2 3 7 6
6 7 11 10
10 11 15 14

        </DataArray>
        <DataArray type="Int32" Name="offsets" format="ascii">
4 8 12 16 20 24 28 32 36 
        </DataArray>
        <DataArray type="UInt8" Name="types" format="ascii">
9 9 9 9 9 9 9 9 9 
        </DataArray>
      </Cells>
      <PointData>
        <DataArray type="Float64" Name="u">
          0.00000000e+00 -5.34119946e+00 -5.01756009e+00 -4.36661109e+00 0.00000000e+00 -6.73968814e-01 3.81056736e+00 1.19382251e+01 0.00000000e+00 1.23947759e+01 2.07594274e+01 3.55542331e+01 0.00000000e+00 4.65165172e+01 5.20518405e+01 6.91519522e+01 
        </DataArray>
        <DataArray type="Float64" Name="v">
          0.00000000e+00 1.53601339e+01 1.11145780e+01 4.37575813e+00 0.00000000e+00 1.68160939e+01 9.12560459e+00 1.18391173e+00 0.00000000e+00 1.33377987e+01 6.17903291e+00 -1.43950613e+00 0.00000000e+00 2.10505053e+00 -6.91712931e-01 -3.34520541e+00 
        </DataArray>
        <DataArray type="Float64" Name="p">
          -5.49234068e+03 -5.45426205e+03 -5.41618341e+03 -5.37810477e+03 -5.82672583e+03 -5.61982978e+03 -5.41293372e+03 -5.20603767e+03 -6.16111097e+03 -5.78539750e+03 -5.40968404e+03 -5.03397057e+03 -6.49549612e+03 -5.95096523e+03 -5.40643435e+03 -4.86190347e+03 
        </DataArray>
      </PointData>
    </Piece>
    <Piece NumberOfPoints="16" NumberOfCells="9">
      <Points>
        <DataArray type="Float64" NumberOfComponents="3" format="ascii">
          2.50000000e+00 3.00000000e+00 0.00000000e+00 
3.33333325e+00 3.00000000e+00 0.00000000e+00 
4.16666651e+00 3.00000000e+00 0.00000000e+00 
5.00000000e+00 3.00000000e+00 0.00000000e+00 
2.50000000e+00 3.33333325e+00 0.00000000e+00 
3.33333325e+00 3.33333325e+00 0.00000000e+00 
4.16666651e+00 3.33333325e+00 0.00000000e+00 
5.00000000e+00 3.33333325e+00 0.00000000e+00 
2.50000000e+00 3.66666675e+00 0.00000000e+00 
3.33333325e+00 3.66666675e+00 0.00000000e+00 
4.16666651e+00 3.66666675e+00 0.00000000e+00 
5.00000000e+00 3.66666675e+00 0.00000000e+00 
2.50000000e+00 4.00000000e+00 0.00000000e+00 
3.33333325e+00 4.00000000e+00 0.00000000e+00 
4.16666651e+00 4.00000000e+00 0.00000000e+00 
5.00000000e+00 4.00000000e+00 0.00000000e+00 

        </DataArray>
      </Points>
      <Cells>
        <DataArray type="Int32" Name="connectivity" format="ascii">
0 1 5 4
4 5 9 8
8 9 13 12
1 2 6 5
5 6 10 9
9 10 14 13
2 3 7 6
6 7 11 10
10 11 15 14

        </DataArray>
        <DataArray type="Int32" Name="offsets" format="ascii">
4 8 12 16 20 24 28 32 36 
        </DataArray>
        <DataArray type="UInt8" Name="types" format="ascii">
9 9 9 9 9 9 9 9 9 
        </DataArray>
      </Cells>
      <PointData>
        <DataArray type="Float64" Name="u">
          0.00000000e+00 4.65165172e+01 5.20518405e+01 6.91519522e+01 9.10608807e+01 9.60086342e+01 1.00557411e+02 1.06160729e+02 1.55822016e+02 1.51264053e+02 1.51113860e+02 1.48381038e+02 1.98767362e+02 1.91654384e+02 1.90292880e+02 1.82567842e+02 
        </DataArray>
        <DataArray type="Float64" Name="v">
          0.00000000e+00 2.10505053e+00 -6.91712931e-01 -3.34520541e+00 -1.68443624e+00 -6.59875293e+00 -5.04930983e+00 -2.37779798e+00 -8.58206218e-01 -6.89504488e+00 -6.69360998e+00 -2.97251168e+00 -8.21472549e-01 -4.50177199e+00 -4.23248236e+00 -2.45257491e+00 
        </DataArray>
        <DataArray type="Float64" Name="p">
          -6.56091722e+03 -5.92279586e+03 -5.28467449e+03 -4.64655312e+03 -6.06601203e+03 -5.68523803e+03 -5.30446403e+03 -4.92369003e+03 -5.57110684e+03 -5.44768020e+03 -5.32425357e+03 -5.20082694e+03 -5.07620164e+03 -5.21012238e+03 -5.34404311e+03 -5.47796384e+03 
        </DataArray>
      </PointData>
    </Piece>
    <Piece NumberOfPoints="16" NumberOfCells="9">
      <Points>
        <DataArray type="Float64" NumberOfComponents="3" format="ascii">
          2.50000000e+00 4.00000000e+00 0.00000000e+00 
3.33333325e+00 4.00000000e+00 0.00000000e+00 
4.16666651e+00 4.00000000e+00 0.00000000e+00 
5.00000000e+00 4.00000000e+00 0.00000000e+00 
2.50000000e+00 4.33333349e+00 0.00000000e+00 
3.33333325e+00 4.33333349e+00 0.00000000e+00 
4.16666651e+00 4.33333349e+00 0.00000000e+00 
5.00000000e+00 4.33333349e+00 0.00000000e+00 
2.50000000e+00 4.66666651e+00 0.00000000e+00 
3.33333325e+00 4.66666651e+00 0.00000000e+00 
4.16666651e+00 4.66666651e+00 0.00000000e+00 
5.00000000e+00 4.66666651e+00 0.00000000e+00 
2.50000000e+00 5.00000000e+00 0.00000000e+00 
3.33333325e+00 5.00000000e+00 0.00000000e+00 
4.16666651e+00 5.00000000e+00 0.00000000e+00 
5.00000000e+00 5.00000000e+00 0.00000000e+00 

        </DataArray>
      </Points>
      <Cells>
        <DataArray type="Int32" Name="connectivity" format="ascii">
0 1 5 4
4 5 9 8
8 9 13 12
1 2 6 5
5 6 10 9
9 10 14 13
2 3 7 6
6 7 11 10
10 11 15 14

        </DataArray>
        <DataArray type="Int32" Name="offsets" format="ascii">
4 8 12 16 20 24 28 32 36 
        </DataArray>
        <DataArray type="UInt8" Name="types" format="ascii">
9 9 9 9 9 9 9 9 9 
        </DataArray>
      </Cells>
      <PointData>
        <DataArray type="Float64" Name="u">
          1.98767362e+02 1.91654384e+02 1.90292880e+02 1.82567842e+02 2.20605529e+02 2.12553057e+02 2.10080278e+02 2.01441360e+02 2.20605529e+02 2.12553057e+02 2.10080278e+02 2.01441360e+02 1.98767362e+02 1.91654384e+02 1.90292880e+02 1.82567842e+02 
        </DataArray>
        <DataArray type="Float64" Name="v">
          -8.21472549e-01 -4.50177199e+00 -4.23248236e+00 -2.45257491e+00 3.76163770e-02 -5.41587462e-01 -1.25519261e+00 -1.16738018e+00 -3.76163808e-02 5.41587456e-01 1.25519260e+00 1.16738017e+00 8.21472546e-01 4.50177199e+00 4.23248235e+00 2.45257490e+00 
        </DataArray>
        <DataArray type="Float64" Name="p">
          -4.90969332e+03 -5.13145565e+03 -5.35321798e+03 -5.57498031e+03 -4.90969332e+03 -5.13145565e+03 -5.35321798e+03 -5.57498031e+03 -4.90969332e+03 -5.13145565e+03 -5.35321798e+03 -5.57498031e+03 -4.90969332e+03 -5.13145565e+03 -5.35321798e+03 -5.57498031e+03 
        </DataArray>
      </PointData>
    </Piece>
    <Piece NumberOfPoints="16" NumberOfCells="9">
      <Points>
        <DataArray type="Float64" NumberOfComponents="3" format="ascii">
          2.50000000e+00 5.00000000e+00 0.00000000e+00 
3.33333325e+00 5.00000000e+00 0.00000000e+00 
4.16666651e+00 5.00000000e+00 0.00000000e+00 
5.00000000e+00 5.00000000e+00 0.00000000e+00 
2.50000000e+00 5.33333349e+00 0.00000000e+00 
3.33333325e+00 5.33333349e+00 0.00000000e+00 
4.16666651e+00 5.33333349e+00 0.00000000e+00 
5.00000000e+00 5.33333349e+00 0.00000000e+00 
2.50000000e+00 5.66666651e+00 0.00000000e+00 
3.33333325e+00 5.66666651e+00 0.00000000e+00 
4.16666651e+00 5.66666651e+00 0.00000000e+00 
5.00000000e+00 5.66666651e+00 0.00000000e+00 
2.50000000e+00 6.00000000e+00 0.00000000e+00 
3.33333325e+00 6.00000000e+00 0.00000000e+00 
4.16666651e+00 6.00000000e+00 0.00000000e+00 
5.00000000e+00 6.00000000e+00 0.00000000e+00 

        </DataArray>
      </Points>
      <Cells>
        <DataArray type="Int32" Name="connectivity" format="ascii">
0 1 5 4
4 5 9 8
8 9 13 12
1 2 6 5
5 6 10 9
9 10 14 13
2 3 7 6
6 7 11 10
10 11 15 14

        </DataArray>
        <DataArray type="Int32" Name="offsets" format="ascii">
4 8 12 16 20 24 28 32 36 
        </DataArray>
        <DataArray type="UInt8" Name="types" format="ascii">
9 9 9 9 9 9 9 9 9 
        </DataArray>
      </Cells>
      <PointData>
        <DataArray type="Float64" Name="u">
          1.98767362e+02 1.91654384e+02 1.90292880e+02 1.82567842e+02 1.55822016e+02 1.51264053e+02 1.51113860e+02 1.48381038e+02 9.10608807e+01 9.60086342e+01 1.00557411e+02 1.06160729e+02 0.00000000e+00 4.65165172e+01 5.20518405e+01 6.91519522e+01 
        </DataArray>
        <DataArray type="Float64" Name="v">
          8.21472546e-01 4.50177199e+00 4.23248235e+00 2.45257490e+00 8.58206216e-01 6.89504487e+00 6.69360998e+00 2.97251168e+00 1.68443624e+00 6.59875292e+00 5.04930983e+00 2.37779797e+00 0.00000000e+00 -2.10505054e+00 6.91712928e-01 3.34520540e+00 
        </DataArray>
        <DataArray type="Float64" Name="p">
          -5.07620164e+03 -5.21012238e+03 -5.34404311e+03 -5.47796384e+03 -5.57110684e+03 -5.44768020e+03 -5.32425357e+03 -5.20082694e+03 -6.06601203e+03 -5.68523803e+03 -5.30446403e+03 -4.92369003e+03 -6.56091722e+03 -5.92279586e+03 -5.28467449e+03 -4.64655312e+03 
        </DataArray>
      </PointData>
    </Piece>
    <Piece NumberOfPoints="16" NumberOfCells="9">
      <Points>
        <DataArray type="Float64" NumberOfComponents="3" format="ascii">
          2.50000000e+00 6.00000000e+00 0.00000000e+00 
3.33333325e+00 6.00000000e+00 0.00000000e+00 
4.16666651e+00 6.00000000e+00 0.00000000e+00 
5.00000000e+00 6.00000000e+00 0.00000000e+00 
2.50000000e+00 6.33333349e+00 0.00000000e+00 
3.33333325e+00 6.33333349e+00 0.00000000e+00 
4.16666651e+00 6.33333349e+00 0.00000000e+00 
5.00000000e+00 6.33333349e+00 0.00000000e+00 
2.50000000e+00 6.66666651e+00 0.00000000e+00 
3.33333325e+00 6.66666651e+00 0.00000000e+00 
4.16666651e+00 6.66666651e+00 0.00000000e+00 
5.00000000e+00 6.66666651e+00 0.00000000e+00 
2.50000000e+00 7.00000000e+00 0.00000000e+00 
3.33333325e+00 7.00000000e+00 0.00000000e+00 
4.16666651e+00 7.00000000e+00 0.00000000e+00 
5.00000000e+00 7.00000000e+00 0.00000000e+00 

        </DataArray>
      </Points>
      <Cells>
        <DataArray type="Int32" Name="connectivity" format="ascii">
0 1 5 4
4 5 9 8
8 9 13 12
1 2 6 5
5 6 10 9
9 10 14 13
2 3 7 6
6 7 11 10
10 11 15 14

        </DataArray>
        <DataArray type="Int32" Name="offsets" format="ascii">
4 8 12 16 20 24 28 32 36 
        </DataArray>
        <DataArray type="UInt8" Name="types" format="ascii">
9 9 9 9 9 9 9 9 9 
        </DataArray>
      </Cells>
      <PointData>
        <DataArray type="Float64" Name="u">
          0.00000000e+00 4.65165172e+01 5.20518405e+01 6.91519522e+01 0.00000000e+00 1.23947759e+01 2.07594274e+01 3.55542331e+01 0.00000000e+00 -6.73968815e-01 3.81056736e+00 1.19382251e+01 0.00000000e+00 -5.34119946e+00 -5.01756010e+00 -4.36661109e+00 
        </DataArray>
        <DataArray type="Float64" Name="v">
          0.00000000e+00 -2.10505054e+00 6.91712928e-01 3.34520540e+00 0.00000000e+00 -1.33377987e+01 -6.17903291e+00 1.43950612e+00 0.00000000e+00 -1.68160939e+01 -9.12560459e+00 -1.18391173e+00 0.00000000e+00 -1.53601338e+01 -1.11145780e+01 -4.37575813e+00 
        </DataArray>
        <DataArray type="Float64" Name="p">
          -6.49549612e+03 -5.95096523e+03 -5.40643435e+03 -4.86190346e+03 -6.16111097e+03 -5.78539750e+03 -5.40968403e+03 -5.03397057e+03 -5.82672583e+03 -5.61982977e+03 -5.41293372e+03 -5.20603767e+03 -5.49234068e+03 -5.45426205e+03 -5.41618341e+03 -5.37810477e+03 
        </DataArray>
      </PointData>
    </Piece>
    <Piece NumberOfPoints="16" NumberOfCells="9">
      <Points>
        <DataArray type="Float64" NumberOfComponents="3" format="ascii">
          2.50000000e+00 7.00000000e+00 0.00000000e+00 
3.33333325e+00 7.00000000e+00 0.00000000e+00 
4.16666651e+00 7.00000000e+00 0.00000000e+00 
5.00000000e+00 7.00000000e+00 0.00000000e+00 
2.50000000e+00 7.33333349e+00 0.00000000e+00 
3.33333325e+00 7.33333349e+00 0.00000000e+00 
4.16666651e+00 7.33333349e+00 0.00000000e+00 
5.00000000e+00 7.33333349e+00 0.00000000e+00 
2.50000000e+00 7.66666651e+00 0.00000000e+00 
3.33333325e+00 7.66666651e+00 0.00000000e+00 
4.16666651e+00 7.66666651e+00 0.00000000e+00 
5.00000000e+00 7.66666651e+00 0.00000000e+00 
2.50000000e+00 8.00000000e+00 0.00000000e+00 
3.33333325e+00 8.00000000e+00 0.00000000e+00 
4.16666651e+00 8.00000000e+00 0.00000000e+00 
5.00000000e+00 8.00000000e+00 0.00000000e+00 

        </DataArray>
      </Points>
      <Cells>
        <DataArray type="Int32" Name="connectivity" format="ascii">
0 1 5 4
4 5 9 8
8 9 13 12
1 2 6 5
5 6 10 9
9 10 14 13
2 3 7 6
6 7 11 10
10 11 15 14

        </DataArray>
        <DataArray type="Int32" Name="offsets" format="ascii">
4 8 12 16 20 24 28 32 36 
        </DataArray>
        <DataArray type="UInt8" Name="types" format="ascii">
9 9 9 9 9 9 9 9 9 
        </DataArray>
      </Cells>
      <PointData>
        <DataArray type="Float64" Name="u">
          0.00000000e+00 -5.34119946e+00 -5.01756010e+00 -4.36661109e+00 0.00000000e+00 -7.19066443e+00 -1.00525066e+01 -1.35644317e+01 0.00000000e+00 -7.46466458e+00 -1.19785571e+01 -1.80066710e+01 0.00000000e+00 -6.73787393e+00 -1.15110628e+01 -1.84083345e+01 
        </DataArray>
        <DataArray type="Float64" Name="v">
          0.00000000e+00 -1.53601338e+01 -1.11145780e+01 -4.37575813e+00 0.00000000e+00 -1.23679626e+01 -1.00714297e+01 -5.26377176e+00 0.00000000e+00 -9.48171958e+00 -8.16126636e+00 -4.85000295e+00 0.00000000e+00 -5.73079498e+00 -5.36594852e+00 -3.51436169e+00 
        </DataArray>
        <DataArray type="Float64" Name="p">
          -5.52977765e+03 -5.44354734e+03 -5.35731703e+03 -5.27108671e+03 -5.43699115e+03 -5.36595746e+03 -5.29492377e+03 -5.22389008e+03 -5.34420465e+03 -5.28836758e+03 -5.23253052e+03 -5.17669345e+03 -5.25141815e+03 -5.21077771e+03 -5.17013726e+03 -5.12949682e+03 
        </DataArray>
      </PointData>
    </Piece>
    <Piece NumberOfPoints="16" NumberOfCells="9">
      <Points>
        <DataArray type="Float64" NumberOfComponents="3" format="ascii">
          2.50000000e+00 8.00000000e+00 0.00000000e+00 
3.33333325e+00 8.00000000e+00 0.00000000e+00 
4.16666651e+00 8.00000000e+00 0.00000000e+00 
5.00000000e+00 8.00000000e+00 0.00000000e+00 
2.50000000e+00 8.33333302e+00 0.00000000e+00 
3.33333325e+00 8.33333302e+00 0.00000000e+00 
4.16666651e+00 8.33333302e+00 0.00000000e+00 
5.00000000e+00 8.33333302e+00 0.00000000e+00 
2.50000000e+00 8.66666698e+00 0.00000000e+00 
3.33333325e+00 8.66666698e+00 0.00000000e+00 
4.16666651e+00 8.66666698e+00 0.00000000e+00 
5.00000000e+00 8.66666698e+00 0.00000000e+00 
2.50000000e+00 9.00000000e+00 0.00000000e+00 
3.33333325e+00 9.00000000e+00 0.00000000e+00 
4.16666651e+00 9.00000000e+00 0.00000000e+00 
5.00000000e+00 9.00000000e+00 0.00000000e+00 

        </DataArray>
      </Points>
      <Cells>
        <DataArray type="Int32" Name="connectivity" format="ascii">
0 1 5 4
4 5 9 8
8 9 13 12
1 2 6 5
5 6 10 9
9 10 14 13
2 3 7 6
6 7 11 10
10 11 15 14

        </DataArray>
        <DataArray type="Int32" Name="offsets" format="ascii">
4 8 12 16 20 24 28 32 36 
        </DataArray>
        <DataArray type="UInt8" Name="types" format="ascii">
9 9 9 9 9 9 9 9 9 
        </DataArray>
      </Cells>
      <PointData>
        <DataArray type="Float64" Name="u">
          0.00000000e+00 -6.73787393e+00 -1.15110628e+01 -1.84083345e+01 0.00000000e+00 -5.25354847e+00 -9.09415840e+00 -1.53882217e+01 0.00000000e+00 -3.01745051e+00 -5.08849616e+00 -9.14616031e+00 0.00000000e+00 0.00000000e+00 0.00000000e+00 0.00000000e+00 
        </DataArray>
        <DataArray type="Float64" Name="v">
          0.00000000e+00 -5.73079498e+00 -5.36594852e+00 -3.51436169e+00 0.00000000e+00 -2.61835459e+00 -2.61699301e+00 -1.74444373e+00 0.00000000e+00 -8.85519619e-01 -9.50111392e-01 -6.55129541e-01 0.00000000e+00 0.00000000e+00 0.00000000e+00 0.00000000e+00 
        </DataArray>
        <DataArray type="Float64" Name="p">
          -5.26701130e+03 -5.21704834e+03 -5.16708537e+03 -5.11712241e+03 -5.28038148e+03 -5.23052787e+03 -5.18067426e+03 -5.13082065e+03 -5.29375165e+03 -5.24400740e+03 -5.19426315e+03 -5.14451890e+03 -5.30712182e+03 -5.25748693e+03 -5.20785203e+03 -5.15821714e+03 
        </DataArray>
      </PointData>
    </Piece>
    <Piece NumberOfPoints="16" NumberOfCells="9">
      <Points>
        <DataArray type="Float64" NumberOfComponents="3" format="ascii">
          5.00000000e+00 0.00000000e+00 0.00000000e+00 
5.83333349e+00 0.00000000e+00 0.00000000e+00 
6.66666651e+00 0.00000000e+00 0.00000000e+00 
7.50000000e+00 0.00000000e+00 0.00000000e+00 
5.00000000e+00 3.33333343e-01 0.00000000e+00 
5.83333349e+00 3.33333343e-01 0.00000000e+00 
6.66666651e+00 3.33333343e-01 0.00000000e+00 
7.50000000e+00 3.33333343e-01 0.00000000e+00 
5.00000000e+00 6.66666687e-01 0.00000000e+00 
5.83333349e+00 6.66666687e-01 0.00000000e+00 
6.66666651e+00 6.66666687e-01 0.00000000e+00 
7.50000000e+00 6.66666687e-01 0.00000000e+00 
5.00000000e+00 1.00000000e+00 0.00000000e+00 
5.83333349e+00 1.00000000e+00 0.00000000e+00 
6.66666651e+00 1.00000000e+00 0.00000000e+00 
7.50000000e+00 1.00000000e+00 0.00000000e+00 

        </DataArray>
      </Points>
      <Cells>
        <DataArray type="Int32" Name="connectivity" format="ascii">
0 1 5 4
4 5 9 8
8 9 13 12
1 2 6 5
5 6 10 9
9 10 14 13
2 3 7 6
6 7 11 10
10 11 15 14

        </DataArray>
        <DataArray type="Int32" Name="offsets" format="ascii">
4 8 12 16 20 24 28 32 36 
        </DataArray>
        <DataArray type="UInt8" Name="types" format="ascii">
9 9 9 9 9 9 9 9 9 
        </DataArray>
      </Cells>
      <PointData>
        <DataArray type="Float64" Name="u">