<?xml version="1.0"?>
<VTKFile type="UnstructuredGrid" version="0.1" byte_order="LittleEndian">
  <UnstructuredGrid>
    <Piece NumberOfPoints="16" NumberOfCells="9">
      <Points>
        <DataArray type="Float64" NumberOfComponents="3" format="ascii">
          0.00000000e+00 3.00000000e+00 0.00000000e+00 
8.33333313e-01 3.00000000e+00 0.00000000e+00 
1.66666663e+00 3.00000000e+00 0.00000000e+00 
2.50000000e+00 3.00000000e+00 0.00000000e+00 
0.00000000e+00 3.33333325e+00 0.00000000e+00 
8.33333313e-01 3.33333325e+00 0.00000000e+00 
1.66666663e+00 3.33333325e+00 0.00000000e+00 
2.50000000e+00 3.33333325e+00 0.00000000e+00 
0.00000000e+00 3.66666675e+00 0.00000000e+00 
8.33333313e-01 3.66666675e+00 0.00000000e+00 
1.66666663e+00 3.66666675e+00 0.00000000e+00 
2.50000000e+00 3.66666675e+00 0.00000000e+00 
0.00000000e+00 4.00000000e+00 0.00000000e+00 
8.33333313e-01 4.00000000e+00 0.00000000e+00 
1.66666663e+00 4.00000000e+00 0.00000000e+00 
2.50000000e+00 4.00000000e+00 0.00000000e+00 

        </DataArray>
      </Points>
      <Cells>
        <DataArray type="Int32" Name="connectivity" format="ascii">
0 1 5 4
4 5 9 8
8 9 13 12
1 2 6 5
5 6 10 9
9 10 14 13
2 3 7 6
6 7 11 10
10 11 15 14

        </DataArray>
        <DataArray type="Int32" Name="offsets" format="ascii">
4 8 12 16 20 24 28 32 36 
        </DataArray>
        <DataArray type="UInt8" Name="types" format="ascii">
9 9 9 9 9 9 9 9 9 
        </DataArray>
      </Cells>
      <PointData>
        <DataArray type="Float64" Name="u">
          0.00000000e+00 0.00000000e+00 0.00000000e+00 0.00000000e+00 8.88888889e+01 9.24791934e+01 9.16141492e+01 1.00872632e+02 1.55555556e+02 1.58162317e+02 1.58462914e+02 1.63860746e+02 2.00000000e+02 2.00981668e+02 2.01949250e+02 2.04551658e+02 
        </DataArray>
        <DataArray type="Float64" Name="v">
          0.00000000e+00 0.00000000e+00 0.00000000e+00 0.00000000e+00 0.00000000e+00 -1.25589380e+00 -1.82270841e+00 -4.28777533e+00 0.00000000e+00 -1.02024164e+00 -2.36090292e+00 -4.25157415e+00 0.00000000e+00 -2.35901003e+00 -4.13457174e+00 -6.68663812e+00 
        </DataArray>
        <DataArray type="Float64" Name="p">
          -3.15353841e+03 -4.21819718e+03 -5.28285594e+03 -6.34751471e+03 -3.12164302e+03 -4.16597440e+03 -5.21030579e+03 -6.25463718e+03 -3.08974762e+03 -4.11375163e+03 -5.13775564e+03 -6.16175966e+03 -3.05785222e+03 -4.06152886e+03 -5.06520549e+03 -6.06888213e+03 
        </DataArray>
      </PointData>
    </Piece>
    <Piece NumberOfPoints="16" NumberOfCells="9">
      <Points>
        <DataArray type="Float64" NumberOfComponents="3" format="ascii">
          0.00000000e+00 4.00000000e+00 0.00000000e+00 
8.33333313e-01 4.00000000e+00 0.00000000e+00 
1.66666663e+00 4.00000000e+00 0.00000000e+00 
2.50000000e+00 4.00000000e+00 0.00000000e+00 
0.00000000e+00 4.33333349e+00 0.00000000e+00 
8.33333313e-01 4.33333349e+00 0.00000000e+00 
1.66666663e+00 4.33333349e+00 0.00000000e+00 
2.50000000e+00 4.33333349e+00 0.00000000e+00 
0.00000000e+00 4.66666651e+00 0.00000000e+00 
8.33333313e-01 4.66666651e+00 0.00000000e+00 
1.66666663e+00 4.66666651e+00 0.00000000e+00 
2.50000000e+00 4.66666651e+00 0.00000000e+00 
0.00000000e+00 5.00000000e+00 0.00000000e+00 
8.33333313e-01 5.00000000e+00 0.00000000e+00 
1.66666663e+00 5.00000000e+00 0.00000000e+00 
2.50000000e+00 5.00000000e+00 0.00000000e+00 

        </DataArray>
      </Points>
      <Cells>
        <DataArray type="Int32" Name="connectivity" format="ascii">
0 1 5 4
4 5 9 8
8 9 13 12
1 2 6 5
5 6 10 9
9 10 14 13
2 3 7 6
6 7 11 10
10 11 15 14

        </DataArray>
        <DataArray type="Int32" Name="offsets" format="ascii">
4 8 12 16 20 24 28 32 36 
        </DataArray>
        <DataArray type="UInt8" Name="types" format="ascii">
9 9 9 9 9 9 9 9 9 
        </DataArray>
      </Cells>
      <PointData>
        <DataArray type="Float64" Name="u">
          2.00000000e+02 2.00981668e+02 2.01949250e+02 2.04551658e+02 2.22222222e+02 2.21956255e+02 2.22761793e+02 2.22807216e+02 2.22222222e+02 2.20708658e+02 2.21386863e+02 2.19016001e+02 2.00000000e+02 1.97528958e+02 1.98315540e+02 1.93580480e+02 
        </DataArray>
        <DataArray type="Float64" Name="v">
          0.00000000e+00 -2.35901003e+00 -4.13457174e+00 -6.68663812e+00 0.00000000e+00 -2.50992029e+00 -4.74099684e+00 -6.63171488e+00 0.00000000e+00 -2.51921955e+00 -4.57805187e+00 -6.69638526e+00 0.00000000e+00 -1.85094286e+00 -3.78952903e+00 -5.35335010e+00 
        </DataArray>
        <DataArray type="Float64" Name="p">
          -3.01896111e+03 -4.02086480e+03 -5.02276849e+03 -6.02467219e+03 -2.79469214e+03 -3.81238423e+03 -4.83007632e+03 -5.84776841e+03 -2.57042317e+03 -3.60390366e+03 -4.63738414e+03 -5.67086462e+03 -2.34615421e+03 -3.39542309e+03 -4.44469196e+03 -5.49396084e+03 
        </DataArray>
      </PointData>
    </Piece>
    <Piece NumberOfPoints="16" NumberOfCells="9">
      <Points>
        <DataArray type="Float64" NumberOfComponents="3" format="ascii">
          0.00000000e+00 5.00000000e+00 0.00000000e+00 
8.33333313e-01 5.00000000e+00 0.00000000e+00 
1.66666663e+00 5.00000000e+00 0.00000000e+00 
2.50000000e+00 5.00000000e+00 0.00000000e+00 
0.00000000e+00 5.33333349e+00 0.00000000e+00 
8.33333313e-01 5.33333349e+00 0.00000000e+00 
1.66666663e+00 5.33333349e+00 0.00000000e+00 
2.50000000e+00 5.33333349e+00 0.00000000e+00 
0.00000000e+00 5.66666651e+00 0.00000000e+00 
8.33333313e-01 5.66666651e+00 0.00000000e+00 
1.66666663e+00 5.66666651e+00 0.00000000e+00 
2.50000000e+00 5.66666651e+00 0.00000000e+00 
0.00000000e+00 6.00000000e+00 0.00000000e+00 
8.33333313e-01 6.00000000e+00 0.00000000e+00 
1.66666663e+00 6.00000000e+00 0.00000000e+00 
2.50000000e+00 6.00000000e+00 0.00000000e+00 

        </DataArray>
      </Points>
      <Cells>
        <DataArray type="Int32" Name="connectivity" format="ascii">
0 1 5 4
4 5 9 8
8 9 13 12
1 2 6 5
5 6 10 9
9 10 14 13
2 3 7 6
6 7 11 10
10 11 15 14

        </DataArray>
        <DataArray type="Int32" Name="offsets" format="ascii">
4 8 12 16 20 24 28 32 36 
        </DataArray>
        <DataArray type="UInt8" Name="types" format="ascii">
9 9 9 9 9 9 9 9 9 
        </DataArray>
      </Cells>
      <PointData>
        <DataArray type="Float64" Name="u">
          2.00000000e+02 1.97528958e+02 1.98315540e+02 1.93580480e+02 1.55555556e+02 1.52799978e+02 1.53564131e+02 1.47512397e+02 8.88888889e+01 8.65704293e+01 8.70163740e+01 8.05095833e+01 0.00000000e+00 0.00000000e+00 0.00000000e+00 0.00000000e+00 
        </DataArray>
        <DataArray type="Float64" Name="v">
          0.00000000e+00 -1.85094286e+00 -3.78952903e+00 -5.35335010e+00 0.00000000e+00 -7.03884792e-01 -1.88374104e+00 -3.14716862e+00 0.00000000e+00 -7.68018132e-01 -1.73913893e+00 -1.65520340e+00 0.00000000e+00 0.00000000e+00 0.00000000e+00 0.00000000e+00 
        </DataArray>
        <DataArray type="Float64" Name="p">
          -2.34285718e+03 -3.37264680e+03 -4.40243643e+03 -5.43222605e+03 -2.30372744e+03 -3.32777268e+03 -4.35181792e+03 -5.37586317e+03 -2.26459770e+03 -3.28289856e+03 -4.30119942e+03 -5.31950028e+03 -2.22546796e+03 -3.23802444e+03 -4.25058092e+03 -5.26313740e+03 
        </DataArray>
      </PointData>
    </Piece>
    <Piece NumberOfPoints="16" NumberOfCells="9">
      <Points>
        <DataArray type="Float64" NumberOfComponents="3" format="ascii">
          2.50000000e+00 0.00000000e+00 0.00000000e+00 
3.33333325e+00 0.00000000e+00 0.00000000e+00 
4.16666651e+00 0.00000000e+00 0.00000000e+00 
5.00000000e+00 0.00000000e+00 0.00000000e+00 
2.50000000e+00 3.33333343e-01 0.00000000e+00 
3.33333325e+00 3.33333343e-01 0.00000000e+00 
4.16666651e+00 3.33333343e-01 0.00000000e+00 
5.00000000e+00 3.33333343e-01 0.00000000e+00 
2.50000000e+00 6.66666687e-01 0.00000000e+00 
3.33333325e+00 6.66666687e-01 0.00000000e+00 
4.16666651e+00 6.66666687e-01 0.00000000e+00 
5.00000000e+00 6.66666687e-01 0.00000000e+00 
2.50000000e+00 1.00000000e+00 0.00000000e+00 
3.33333325e+00 1.00000000e+00 0.00000000e+00 
4.16666651e+00 1.00000000e+00 0.00000000e+00 
5.00000000e+00 1.00000000e+00 0.00000000e+00 

        </DataArray>
      </Points>
      <Cells>
        <DataArray type="Int32" Name="connectivity" format="ascii">
0 1 5 4
4 5 9 8
8 9 13 12
1 2 6 5
5 6 10 9
9 10 14 13
2 3 7 6
6 7 11 10
10 11 15 14

        </DataArray>
        <DataArray type="Int32" Name="offsets" format="ascii">
4 8 12 16 20 24 28 32 36 
        </DataArray>
        <DataArray type="UInt8" Name="types" format="ascii">
9 9 9 9 9 9 9 9 9 
        </DataArray>
      </Cells>
      <PointData>
        <DataArray type="Float64" Name="u">
          0.00000000e+00 0.00000000e+00 0.00000000e+00 0.00000000e+00 0.00000000e+00 -2.94735075e+00 -5.31575424e+00 -9.63949856e+00 0.00000000e+00 -5.21828508e+00 -9.58878252e+00 -1.66572685e+01 0.00000000e+00 -6.69547105e+00 -1.21179511e+01 -1.97184537e+01 
        </DataArray>
        <DataArray type="Float64" Name="v">
          0.00000000e+00 0.00000000e+00 0.00000000e+00 0.00000000e+00 0.00000000e+00 9.03932274e-01 9.71840967e-01 8.84083902e-01 0.00000000e+00 2.66322185e+00 2.75749971e+00 2.22076815e+00 0.00000000e+00 5.85070791e+00 5.86739659e+00 4.28918841e+00 
        </DataArray>
        <DataArray type="Float64" Name="p">
          -6.50400110e+03 -6.47505538e+03 -6.44610966e+03 -6.41716395e+03 -6.49537490e+03 -6.46481213e+03 -6.43424936e+03 -6.40368659e+03 -6.48674869e+03 -6.45456887e+03 -6.42238905e+03 -6.39020923e+03 -6.47812249e+03 -6.44432561e+03 -6.41052874e+03 -6.37673187e+03 
        </DataArray>
      </PointData>
    </Piece>
    <Piece NumberOfPoints="16" NumberOfCells="9">
      <Points>
        <DataArray type="Float64" NumberOfComponents="3" format="ascii">
          2.50000000e+00 1.00000000e+00 0.00000000e+00 
3.33333325e+00 1.00000000e+00 0.00000000e+00 
4.16666651e+00 1.00000000e+00 0.00000000e+00 
5.00000000e+00 1.00000000e+00 0.00000000e+00 
2.50000000e+00 1.33333337e+00 0.00000000e+00 
3.33333325e+00 1.33333337e+00 0.00000000e+00 
4.16666651e+00 1.33333337e+00 0.00000000e+00 
5.00000000e+00 1.33333337e+00 0.00000000e+00 
2.50000000e+00 1.66666663e+00 0.00000000e+00 
3.33333325e+00 1.66666663e+00 0.00000000e+00 
4.16666651e+00 1.66666663e+00 0.00000000e+00 
5.00000000e+00 1.66666663e+00 0.00000000e+00 
2.50000000e+00 2.00000000e+00 0.00000000e+00 
3.33333325e+00 2.00000000e+00 0.00000000e+00 
4.16666651e+00 2.00000000e+00 0.00000000e+00 
5.00000000e+00 2.00000000e+00 0.00000000e+00 

        </DataArray>
      </Points>
      <Cells>
        <DataArray type="Int32" Name="connectivity" format="ascii">
0 1 5 4
4 5 9 8
8 9 13 12
1 2 6 5
5 6 10 9
9 10 14 13
2 3 7 6
6 7 11 10
10 11 15 14

        </DataArray>
        <DataArray type="Int32" Name="offsets" format="ascii">
4 8 12 16 20 24 28 32 36 
        </DataArray>
        <DataArray type="UInt8" Name="types" format="ascii">
9 9 9 9 9 9 9 9 9 
        </DataArray>
      </Cells>
      <PointData>
        <DataArray type="Float64" Name="u">
          0.00000000e+00 -6.69547105e+00 -1.21179511e+01 -1.97184537e+01 0.00000000e+00 -7.28070684e+00 -1.23111983e+01 -1.84526788e+01 0.00000000e+00 -6.79902305e+00 -9.74607737e+00 -1.22771755e+01 0.00000000e+00 -4.78736759e+00 -3.73687497e+00 -4.95607026e-01 
        </DataArray>
        <DataArray type="Float64" Name="v">
          0.00000000e+00 5.85070791e+00 5.86739659e+00 4.28918841e+00 0.00000000e+00 9.64486803e+00 8.94190748e+00 5.68008692e+00 0.00000000e+00 1.24883905e+01 1.08819415e+01 5.74379588e+00 0.00000000e+00 1.52742552e+01 1.15700411e+01 3.87206251e+00 
        </DataArray>
        <DataArray type="Float64" Name="p">
          -6.46646550e+03 -6.44100305e+03 -6.41554060e+03 -6.39007815e+03 -6.53097813e+03 -6.50440458e+03 -6.47783104e+03 -6.45125749e+03 -6.59549075e+03 -6.56780611e+03 -6.54012147e+03 -6.51243683e+03 -6.66000338e+03 -6.63120764e+03 -6.60241191e+03 -6.57361617e+03 
        </DataArray>
      </PointData>
    </Piece>
    <Piece NumberOfPoints="16" NumberOfCells="9">
      <Points>
        <DataArray type="Float64" NumberOfComponents="3" format="ascii">
          2.50000000e+00 2.00000000e+00 0.00000000e+00 
3.33333325e+00 2.00000000e+00 0.00000000e+00 
4.16666651e+00 2.00000000e+00 0.00000000e+00 
5.00000000e+00 2.00000000e+00 0.00000000e+00 
2.50000000e+00 2.33333325e+00 0.00000000e+00 
3.33333325e+00 2.33333325e+00 0.00000000e+00 
4.16666651e+00 2.33333325e+00 0.00000000e+00 
5.00000000e+00 2.33333325e+00 0.00000000e+00 
2.50000000e+00 2.66666675e+00 0.00000000e+00 
3.33333325e+00 2.66666675e+00 0.00000000e+00 
4.16666651e+00 2.66666675e+00 0.00000000e+00 
5.00000000e+00 2.66666675e+00 0.00000000e+00 
2.50000000e+00 3.00000000e+00 0.00000000e+00 
3.33333325e+00 3.00000000e+00 0.00000000e+00 
4.16666651e+00 3.00000000e+00 0.00000000e+00 
5.00000000e+00 3.00000000e+00 0.00000000e+00 

        </DataArray>
      </Points>
      <Cells>
        <DataArray type="Int32" Name="connectivity" format="ascii">
0 1 5 4
4 5 9 8
8 9 13 12
1 2 6 5
5 6 10 9
9 10 14 13
2 3 7 6
6 7 11 10
10 11 15 14

        </DataArray>
        <DataArray type="Int32" Name="offsets" format="ascii">
4 8 12 16 20 24 28 32 36 
        </DataArray>
        <DataArray type="UInt8" Name="types" format="ascii">
9 9 9 9 9 9 9 9 9 
        </DataArray>
      </Cells>
      <PointData>
        <DataArray type="Float64" Name="u">
          0.00000000e+00 -4.78736759e+00 -3.73687497e+00 -4.95607026e-01 0.00000000e+00 -1.09649344e-01 6.25921888e+00 1.96660607e+01 0.00000000e+00 1.37826770e+01 2.60997024e+01 4.82915028e+01 0.00000000e+00 5.29337755e+01 6.49762019e+01 8.89554893e+01 
        </DataArray>
        <DataArray type="Float64" Name="v">
          0.00000000e+00 1.52742552e+01 1.15700411e+01 3.87206251e+00 0.00000000e+00 1.64390699e+01 8.22626301e+00 -1.59430499e+00 0.00000000e+00 1.22258397e+01 3.84559654e+00 -6.27338679e+00 0.00000000e+00 -1.03222415e+00 -6.10414228e+00 -1.11189784e+01 
        </DataArray>
        <DataArray type="Float64" Name="p">
          -6.62013970e+03 -6.64172975e+03 -6.66331979e+03 -6.68490983e+03 -6.88557094e+03 -6.76053012e+03 -6.63548930e+03 -6.51044848e+03 -7.15100218e+03 -6.87933049e+03 -6.60765881e+03 -6.33598713e+03 -7.41643342e+03 -6.99813087e+03 -6.57982832e+03 -6.16152577e+03 
        </DataArray>
      </PointData>
    </Piece>
    <Piece NumberOfPoints="16" NumberOfCells="9">
      <Points>
        <DataArray type="Float64" NumberOfComponents="3" format="ascii">
          2.50000000e+00 3.00000000e+00 0.00000000e+00 
3.33333325e+00 3.00000000e+00 0.00000000e+00 
4.16666651e+00 3.00000000e+00 0.00000000e+00 
5.00000000e+00 3.00000000e+00 0.00000000e+00 
2.50000000e+00 3.33333325e+00 0.00000000e+00 
3.33333325e+00 3.33333325e+00 0.00000000e+00 
4.16666651e+00 3.33333325e+00 0.00000000e+00 
5.00000000e+00 3.33333325e+00 0.00000000e+00 
2.50000000e+00 3.66666675e+00 0.00000000e+00 
3.33333325e+00 3.66666675e+00 0.00000000e+00 
4.16666651e+00 3.66666675e+00 0.00000000e+00 
5.00000000e+00 3.66666675e+00 0.00000000e+00 
2.50000000e+00 4.00000000e+00 0.00000000e+00 
3.33333325e+00 4.00000000e+00 0.00000000e+00 
4.16666651e+00 4.00000000e+00 0.00000000e+00 
5.00000000e+00 4.00000000e+00 0.00000000e+00 

        </DataArray>
      </Points>
      <Cells>
        <DataArray type="Int32" Name="connectivity" format="ascii">
0 1 5 4
4 5 9 8
8 9 13 12
1 2 6 5
5 6 10 9
9 10 14 13
2 3 7 6
6 7 11 10
10 11 15 14

        </DataArray>
        <DataArray type="Int32" Name="offsets" format="ascii">
4 8 12 16 20 24 28 32 36 
        </DataArray>
        <DataArray type="UInt8" Name="types" format="ascii">
9 9 9 9 9 9 9 9 9 
        </DataArray>
      </Cells>
      <PointData>
        <DataArray type="Float64" Name="u">
          0.00000000e+00 5.29337755e+01 6.49762019e+01 8.89554893e+01 1.00872632e+02 1.08575450e+02 1.20073687e+02 1.31990730e+02 1.63860746e+02 1.63838483e+02 1.69961983e+02 1.73193585e+02 2.04551658e+02 2.00233432e+02 2.03728664e+02 1.99966597e+02 
        </DataArray>
        <DataArray type="Float64" Name="v">
          0.00000000e+00 -1.03222415e+00 -6.10414228e+00 -1.11189784e+01 -4.28777533e+00 -1.25772559e+01 -1.43124859e+01 -1.39753153e+01 -4.25157415e+00 -1.26246284e+01 -1.58963335e+01 -1.60972729e+01 -6.68663812e+00 -1.30707428e+01 -1.65605369e+01 -1.92368958e+01 
        </DataArray>
        <DataArray type="Float64" Name="p">
          -7.56859283e+03 -7.05943794e+03 -6.55028305e+03 -6.04112816e+03 -6.95800939e+03 -6.69565411e+03 -6.43329884e+03 -6.17094356e+03 -6.34742595e+03 -6.33187029e+03 -6.31631463e+03 -6.30075896e+03 -5.73684252e+03 -5.96808646e+03 -6.19933041e+03 -6.43057436e+03 
        </DataArray>
      </PointData>
    </Piece>
    <Piece NumberOfPoints="16" NumberOfCells="9">
      <Points>
        <DataArray type="Float64" NumberOfComponents="3" format="ascii">
          2.50000000e+00 4.00000000e+00 0.00000000e+00 
3.33333325e+00 4.00000000e+00 0.00000000e+00 
4.16666651e+00 4.00000000e+00 0.00000000e+00 
5.00000000e+00 4.00000000e+00 0.00000000e+00 
2.50000000e+00 4.33333349e+00 0.00000000e+00 
3.33333325e+00 4.33333349e+00 0.00000000e+00 
4.16666651e+00 4.33333349e+00 0.00000000e+00 
5.00000000e+00 4.33333349e+00 0.00000000e+00 
2.50000000e+00 4.66666651e+00 0.00000000e+00 
3.33333325e+00 4.66666651e+00 0.00000000e+00 
4.16666651e+00 4.66666651e+00 0.00000000e+00 
5.00000000e+00 4.66666651e+00 0.00000000e+00 
2.50000000e+00 5.00000000e+00 0.00000000e+00 
3.33333325e+00 5.00000000e+00 0.00000000e+00 
4.16666651e+00 5.00000000e+00 0.00000000e+00 
5.00000000e+00 5.00000000e+00 0.00000000e+00 

        </DataArray>
      </Points>
      <Cells>
        <DataArray type="Int32" Name="connectivity" format="ascii">
0 1 5 4
4 5 9 8
8 9 13 12
1 2 6 5
5 6 10 9
9 10 14 13
2 3 7 6
6 7 11 10
10 11 15 14

        </DataArray>
        <DataArray type="Int32" Name="offsets" format="ascii">
4 8 12 16 20 24 28 32 36 
        </DataArray>
        <DataArray type="UInt8" Name="types" format="ascii">
9 9 9 9 9 9 9 9 9 
        </DataArray>
      </Cells>
      <PointData>
        <DataArray type="Float64" Name="u">
          2.04551658e+02 2.00233432e+02 2.03728664e+02 1.99966597e+02 2.22807216e+02 2.16729042e+02 2.15807371e+02 2.08620932e+02 2.19016001e+02 2.11188123e+02 2.07278582e+02 1.96867353e+02 1.93580480e+02 1.85143434e+02 1.79302230e+02 1.67378391e+02 
        </DataArray>
        <DataArray type="Float64" Name="v">
          -6.68663812e+00 -1.30707428e+01 -1.65605369e+01 -1.92368958e+01 -6.63171488e+00 -1.02604773e+01 -1.45624232e+01 -1.86746361e+01 -6.69638526e+00 -9.67835586e+00 -1.26348211e+01 -1.64055283e+01 -5.35335010e+00 -5.17491653e+00 -8.39753981e+00 -1.28298761e+01 
        </DataArray>
        <DataArray type="Float64" Name="p">
          -5.57481698e+03 -5.84379047e+03 -6.11276396e+03 -6.38173745e+03 -5.28947497e+03 -5.51944214e+03 -5.74940932e+03 -5.97937650e+03 -5.00413296e+03 -5.19509382e+03 -5.38605468e+03 -5.57701554e+03 -4.71879094e+03 -4.87074549e+03 -5.02270004e+03 -5.17465459e+03 
        </DataArray>
      </PointData>
    </Piece>
    <Piece NumberOfPoints="16" NumberOfCells="9">
      <Points>
        <DataArray type="Float64" NumberOfComponents="3" format="ascii">
          2.50000000e+00 5.00000000e+00 0.00000000e+00 
3.33333325e+00 5.00000000e+00 0.00000000e+00 
4.16666651e+00 5.00000000e+00 0.00000000e+00 
5.00000000e+00 5.00000000e+00 0.00000000e+00 
2.50000000e+00 5.33333349e+00 0.00000000e+00 
3.33333325e+00 5.33333349e+00 0.00000000e+00 
4.16666651e+00 5.33333349e+00 0.00000000e+00 
5.00000000e+00 5.33333349e+00 0.00000000e+00 
2.50000000e+00 5.66666651e+00 0.00000000e+00 
3.33333325e+00 5.66666651e+00 0.00000000e+00 
4.16666651e+00 5.66666651e+00 0.00000000e+00 
5.00000000e+00 5.66666651e+00 0.00000000e+00 
2.50000000e+00 6.00000000e+00 0.00000000e+00 
3.33333325e+00 6.00000000e+00 0.00000000e+00 
4.16666651e+00 6.00000000e+00 0.00000000e+00 
5.00000000e+00 6.00000000e+00 0.00000000e+00 

        </DataArray>
      </Points>
      <Cells>
        <DataArray type="Int32" Name="connectivity" format="ascii">
0 1 5 4
4 5 9 8
8 9 13 12
1 2 6 5
5 6 10 9
9 10 14 13
2 3 7 6
6 7 11 10
10 11 15 14

        </DataArray>
        <DataArray type="Int32" Name="offsets" format="ascii">
4 8 12 16 20 24 28 32 36 
        </DataArray>
        <DataArray type="UInt8" Name="types" format="ascii">
9 9 9 9 9 9 9 9 9 
        </DataArray>
      </Cells>
      <PointData>
        <DataArray type="Float64" Name="u">
          1.93580480e+02 1.85143434e+02 1.79302230e+02 1.67378391e+02 1.47512397e+02 1.39631610e+02 1.33366697e+02 1.24058892e+02 8.05095833e+01 8.17220659e+01 7.94171862e+01 7.81927955e+01 0.00000000e+00 3.48444183e+01 3.48331049e+01 4.46966551e+01 
        </DataArray>
        <DataArray type="Float64" Name="v">
          -5.35335010e+00 -5.17491653e+00 -8.39753981e+00 -1.28298761e+01 -3.14716862e+00 -9.16282471e-01 -3.12160144e+00 -8.19676752e+00 -1.65520340e+00 -6.95287167e-01 -4.00015293e+00 -7.05502061e+00 0.00000000e+00 -6.20853021e+00 -4.60289638e+00 -2.93979155e+00 
        </DataArray>
        <DataArray type="Float64" Name="p">
          -4.80713518e+03 -4.87814739e+03 -4.94915960e+03 -5.02017180e+03 -5.01928494e+03 -4.93568523e+03 -4.85208552e+03 -4.76848581e+03 -5.23143470e+03 -4.99322307e+03 -4.75501144e+03 -4.51679981e+03 -5.44358447e+03 -5.05076092e+03 -4.65793736e+03 -4.26511381e+03 
        </DataArray>
      </PointData>
    </Piece>
    <Piece NumberOfPoints="16" NumberOfCells="9">
      <Points>
        <DataArray type="Float64" NumberOfComponents="3" format="ascii">
          2.50000000e+00 6.00000000e+00 0.00000000e+00 
3.33333325e+00 6.00000000e+00 0.00000000e+00 
4.16666651e+00 6.00000000e+00 0.00000000e+00 
5.00000000e+00 6.00000000e+00 0.00000000e+00 
2.50000000e+00 6.33333349e+00 0.00000000e+00 
3.33333325e+00 6.33333349e+00 0.00000000e+00 
4.16666651e+00 6.33333349e+00 0.00000000e+00 
5.00000000e+00 6.33333349e+00 0.00000000e+00 
2.50000000e+00 6.66666651e+00 0.00000000e+00 
3.33333325e+00 6.66666651e+00 0.00000000e+00 
4.16666651e+00 6.66666651e+00 0.00000000e+00 
5.00000000e+00 6.66666651e+00 0.00000000e+00 
2.50000000e+00 7.00000000e+00 0.00000000e+00 
3.33333325e+00 7.00000000e+00 0.00000000e+00 
4.16666651e+00 7.00000000e+00 0.00000000e+00 
5.00000000e+00 7.00000000e+00 0.00000000e+00 

        </DataArray>
      </Points>
      <Cells>
        <DataArray type="Int32" Name="connectivity" format="ascii">
0 1 5 4
4 5 9 8
8 9 13 12
1 2 6 5
5 6 10 9
9 10 14 13
2 3 7 6
6 7 11 10
10 11 15 14

        </DataArray>
        <DataArray type="Int32" Name="offsets" format="ascii">
4 8 12 16 20 24 28 32 36 
        </DataArray>
        <DataArray type="UInt8" Name="types" format="ascii">
9 9 9 9 9 9 9 9 9 
        </DataArray>
      </Cells>
      <PointData>
        <DataArray type="Float64" Name="u">
          0.00000000e+00 3.48444183e+01 3.48331049e+01 4.46966551e+01 0.00000000e+00 6.87497642e+00 1.01884915e+01 1.79437594e+01 0.00000000e+00 -2.46440039e+00 -1.68770410e+00 1.08938168e+00 0.00000000e+00 -5.33363608e+00 -7.23646291e+00 -9.25557075e+00 
        </DataArray>
        <DataArray type="Float64" Name="v">
          0.00000000e+00 -6.20853021e+00 -4.60289638e+00 -2.93979155e+00 0.00000000e+00 -1.34615211e+01 -8.44680091e+00 -3.16407764e+00 0.00000000e+00 -1.48411617e+01 -9.19111939e+00 -4.05997647e+00 0.00000000e+00 -1.27384756e+01 -9.64223671e+00 -5.24813744e+00 
        </DataArray>
        <DataArray type="Float64" Name="p">
          -5.41002812e+03 -5.10335939e+03 -4.79669067e+03 -4.49002194e+03 -5.20409035e+03 -4.99516421e+03 -4.78623807e+03 -4.57731192e+03 -4.99815259e+03 -4.88696903e+03 -4.77578547e+03 -4.66460191e+03 -4.79221482e+03 -4.77877384e+03 -4.76533287e+03 -4.75189189e+03 
        </DataArray>
      </PointData>
    </Piece>
    <Piece NumberOfPoints="16" NumberOfCells="9">
      <Points>
        <DataArray type="Float64" NumberOfComponents="3" format="ascii">
          2.50000000e+00 7.00000000e+00 0.00000000e+00 
3.33333325e+00 7.00000000e+00 0.00000000e+00 
4.16666651e+00 7.00000000e+00 0.00000000e+00 
5.00000000e+00 7.00000000e+00 0.00000000e+00 
2.50000000e+00 7.33333349e+00 0.00000000e+00 
3.33333325e+00 7.33333349e+00 0.00000000e+00 
4.16666651e+00 7.33333349e+00 0.00000000e+00 
5.00000000e+00 7.33333349e+00 0.00000000e+00 
2.50000000e+00 7.66666651e+00 0.00000000e+00 
3.33333325e+00 7.66666651e+00 0.00000000e+00 
4.16666651e+00 7.66666651e+00 0.00000000e+00 
5.00000000e+00 7.66666651e+00 0.00000000e+00 
2.50000000e+00 8.00000000e+00 0.00000000e+00 
3.33333325e+00 8.00000000e+00 0.00000000e+00 
4.16666651e+00 8.00000000e+00 0.00000000e+00 
5.00000000e+00 8.00000000e+00 0.00000000e+00 

        </DataArray>
      </Points>
      <Cells>
        <DataArray type="Int32" Name="connectivity" format="ascii">
0 1 5 4
4 5 9 8
8 9 13 12
1 2 6 5
5 6 10 9
9 10 14 13
2 3 7 6
6 7 11 10
10 11 15 14

        </DataArray>
        <DataArray type="Int32" Name="offsets" format="ascii">
4 8 12 16 20 24 28 32 36 
        </DataArray>
        <DataArray type="UInt8" Name="types" format="ascii">
9 9 9 9 9 9 9 9 9 
        </DataArray>
      </Cells>
      <PointData>
        <DataArray type="Float64" Name="u">
          0.00000000e+00 -5.33363608e+00 -7.23646291e+00 -9.25557075e+00 0.00000000e+00 -6.15193766e+00 -9.89645936e+00 -1.40889788e+01 0.00000000e+00 -5.89189669e+00 -1.03196415e+01 -1.55870279e+01 0.00000000e+00 -5.01004705e+00 -9.17273175e+00 -1.44880255e+01 
        </DataArray>
        <DataArray type="Float64" Name="v">
          0.00000000e+00 -1.27384756e+01 -9.64223671e+00 -5.24813744e+00 0.00000000e+00 -9.76696694e+00 -8.08203052e+00 -4.93652705e+00 0.00000000e+00 -7.25844678e+00 -6.27892608e+00 -4.06086240e+00 0.00000000e+00 -4.22906712e+00 -3.96633569e+00 -2.69541942e+00 
        </DataArray>
        <DataArray type="Float64" Name="p">
          -4.81193771e+03 -4.77086920e+03 -4.72980070e+03 -4.68873220e+03 -4.75816197e+03 -4.72675117e+03 -4.69534038e+03 -4.66392958e+03 -4.70438623e+03 -4.68263314e+03 -4.66088005e+03 -4.63912696e+03 -4.65061049e+03 -4.63851511e+03 -4.62641973e+03 -4.61432434e+03 
        </DataArray>
      </PointData>
    </Piece>
    <Piece NumberOfPoints="16" NumberOfCells="9">
      <Points>
        <DataArray type="Float64" NumberOfComponents="3" format="ascii">
          2.50000000e+00 8.00000000e+00 0.00000000e+00 
3.33333325e+00 8.00000000e+00 0.00000000e+00 
4.16666651e+00 8.00000000e+00 0.00000000e+00 
5.00000000e+00 8.00000000e+00 0.00000000e+00 
2.50000000e+00 8.33333302e+00 0.00000000e+00 
3.33333325e+00 8.33333302e+00 0.00000000e+00 
4.16666651e+00 8.33333302e+00 0.00000000e+00 
5.00000000e+00 8.33333302e+00 0.00000000e+00 
2.50000000e+00 8.66666698e+00 0.00000000e+00 
3.33333325e+00 8.66666698e+00 0.00000000e+00 
4.16666651e+00 8.66666698e+00 0.00000000e+00 
5.00000000e+00 8.66666698e+00 0.00000000e+00 
2.50000000e+00 9.00000000e+00 0.00000000e+00 
3.33333325e+00 9.00000000e+00 0.00000000e+00 
4.16666651e+00 9.00000000e+00 0.00000000e+00 
5.00000000e+00 9.00000000e+00 0.00000000e+00 

        </DataArray>
      </Points>
      <Cells>
        <DataArray type="Int32" Name="connectivity" format="ascii">
0 1 5 4
4 5 9 8
8 9 13 12
1 2 6 5
5 6 10 9
9 10 14 13
2 3 7 6
6 7 11 10
10 11 15 14

        </DataArray>
        <DataArray type="Int32" Name="offsets" format="ascii">
4 8 12 16 20 24 28 32 36 
        </DataArray>
        <DataArray type="UInt8" Name="types" format="ascii">
9 9 9 9 9 9 9 9 9 
        </DataArray>
      </Cells>
      <PointData>
        <DataArray type="Float64" Name="u">
          0.00000000e+00 -5.01004705e+00 -9.17273175e+00 -1.44880255e+01 0.00000000e+00 -3.71796324e+00 -6.87346405e+00 -1.13943830e+01 0.00000000e+00 -2.04315983e+00 -3.70170501e+00 -6.51096507e+00 0.00000000e+00 0.00000000e+00 0.00000000e+00 0.00000000e+00 
        </DataArray>
        <DataArray type="Float64" Name="v">
          0.00000000e+00 -4.22906712e+00 -3.96633569e+00 -2.69541942e+00 0.00000000e+00 -1.88862074e+00 -1.90255925e+00 -1.27727259e+00 0.00000000e+00 -6.10783560e-01 -6.67325668e-01 -4.41978679e-01 0.00000000e+00 0.00000000e+00 0.00000000e+00 0.00000000e+00 
        </DataArray>
        <DataArray type="Float64" Name="p">
          -4.66187862e+03 -4.64485562e+03 -4.62783262e+03 -4.61080963e+03 -4.67014120e+03 -4.65317751e+03 -4.63621382e+03 -4.61925013e+03 -4.67840378e+03 -4.66149940e+03 -4.64459501e+03 -4.62769062e+03 -4.68666636e+03 -4.66982128e+03 -4.65297620e+03 -4.63613112e+03 
        </DataArray>
      </PointData>
    </Piece>
    <Piece NumberOfPoints="16" NumberOfCells="9">
      <Points>
        <DataArray type="Float64" NumberOfComponents="3" format="ascii">
          5.00000000e+00 0.00000000e+00 0.00000000e+00 
5.83333349e+00 0.00000000e+00 0.00000000e+00 
6.66666651e+00 0.00000000e+00 0.00000000e+00 
7.50000000e+00 0.00000000e+00 0.00000000e+00 
5.00000000e+00 3.33333343e-01 0.00000000e+00 
5.83333349e+00 3.33333343e-01 0.00000000e+00 
6.66666651e+00 3.33333343e-01 0.00000000e+00 
7.50000000e+00 3.33333343e-01 0.00000000e+00 
5.00000000e+00 6.66666687e-01 0.00000000e+00 
5.83333349e+00 6.66666687e-01 0.00000000e+00 
6.66666651e+00 6.66666687e-01 0.00000000e+00 
7.50000000e+00 6.66666687e-01 0.00000000e+00 
5.00000000e+00 1.00000000e+00 0.00000000e+00 
5.83333349e+00 1.00000000e+00 0.00000000e+00 
6.66666651e+00 1.00000000e+00 0.00000000e+00 
7.50000000e+00 1.00000000e+00 0.00000000e+00 

        </DataArray>
      </Points>
      <Cells>
        <DataArray type="Int32" Name="connectivity" format="ascii">
0 1 5 4
4 5 9 8
8 9 13 12
1 2 6 5
5 6 10 9
9 10 14 13
2 3 7 6
6 7 11 10
10 11 15 14

        </DataArray>
        <DataArray type="Int32" Name="offsets" format="ascii">
4 8 12 16 20 24 28 32 36 
        </DataArray>
        <DataArray type="UInt8" Name="types" format="ascii">
9 9 9 9 9 9 9 9 9 
        </DataArray>
      </Cells>
      <PointData>
        <DataArray type="Float64" Name="u">