<?xml version="1.0"?>
<VTKFile type="UnstructuredGrid" version="0.1" byte_order="LittleEndian">
  <UnstructuredGrid>
    <Piece NumberOfPoints="16" NumberOfCells="9">
      <Points>
        <DataArray type="Float64" NumberOfComponents="3" format="ascii">
          0.00000000e+00 3.00000000e+00 0.00000000e+00 
8.33333313e-01 3.00000000e+00 0.00000000e+00 
1.66666663e+00 3.00000000e+00 0.00000000e+00 
2.50000000e+00 3.00000000e+00 0.00000000e+00 
0.00000000e+00 3.33333325e+00 0.00000000e+00 
8.33333313e-01 3.33333325e+00 0.00000000e+00 
1.66666663e+00 3.33333325e+00 0.00000000e+00 
2.50000000e+00 3.33333325e+00 0.00000000e+00 
0.00000000e+00 3.66666675e+00 0.00000000e+00 
8.33333313e-01 3.66666675e+00 0.00000000e+00 
1.66666663e+00 3.66666675e+00 0.00000000e+00 
2.50000000e+00 3.66666675e+00 0.00000000e+00 
0.00000000e+00 4.00000000e+00 0.00000000e+00 
8.33333313e-01 4.00000000e+00 0.00000000e+00 
1.66666663e+00 4.00000000e+00 0.00000000e+00 
2.50000000e+00 4.00000000e+00 0.00000000e+00 

        </DataArray>
      </Points>
      <Cells>
        <DataArray type="Int32" Name="connectivity" format="ascii">
0 1 5 4
4 5 9 8
8 9 13 12
1 2 6 5
5 6 10 9
9 10 14 13
2 3 7 6
6 7 11 10
10 11 15 14

        </DataArray>
        <DataArray type="Int32" Name="offsets" format="ascii">
4 8 12 16 20 24 28 32 36 
        </DataArray>
        <DataArray type="UInt8" Name="types" format="ascii">
9 9 9 9 9 9 9 9 9 
        </DataArray>
      </Cells>
      <PointData>
        <DataArray type="Float64" Name="u">
          0.00000000e+00 0.00000000e+00 0.00000000e+00 0.00000000e+00 8.88888889e+01 8.94724277e+01 8.95066942e+01 9.11143274e+01 1.55555556e+02 1.55368323e+02 1.56273722e+02 1.55827957e+02 2.00000000e+02 1.98972545e+02 2.00373147e+02 1.98737253e+02 
        </DataArray>
        <DataArray type="Float64" Name="v">
          0.00000000e+00 0.00000000e+00 0.00000000e+00 0.00000000e+00 0.00000000e+00 -2.43923761e-01 -4.32170393e-02 -1.72685711e+00 0.00000000e+00 -2.16613510e-01 -2.42323181e-01 -8.96009535e-01 0.00000000e+00 -3.05940080e-01 -2.43647404e-01 -8.43547001e-01 
        </DataArray>
        <DataArray type="Float64" Name="p">
          -1.40402285e+03 -2.82757357e+03 -4.25112429e+03 -5.67467501e+03 -1.41463115e+03 -2.82484516e+03 -4.23505918e+03 -5.64527319e+03 -1.42523945e+03 -2.82211676e+03 -4.21899406e+03 -5.61587137e+03 -1.43584775e+03 -2.81938835e+03 -4.20292895e+03 -5.58646955e+03 
        </DataArray>
      </PointData>
    </Piece>
    <Piece NumberOfPoints="16" NumberOfCells="9">
      <Points>
        <DataArray type="Float64" NumberOfComponents="3" format="ascii">
          0.00000000e+00 4.00000000e+00 0.00000000e+00 
8.33333313e-01 4.00000000e+00 0.00000000e+00 
1.66666663e+00 4.00000000e+00 0.00000000e+00 
2.50000000e+00 4.00000000e+00 0.00000000e+00 
0.00000000e+00 4.33333349e+00 0.00000000e+00 
8.33333313e-01 4.33333349e+00 0.00000000e+00 
1.66666663e+00 4.33333349e+00 0.00000000e+00 
2.50000000e+00 4.33333349e+00 0.00000000e+00 
0.00000000e+00 4.66666651e+00 0.00000000e+00 
8.33333313e-01 4.66666651e+00 0.00000000e+00 
1.66666663e+00 4.66666651e+00 0.00000000e+00 
2.50000000e+00 4.66666651e+00 0.00000000e+00 
0.00000000e+00 5.00000000e+00 0.00000000e+00 
8.33333313e-01 5.00000000e+00 0.00000000e+00 
1.66666663e+00 5.00000000e+00 0.00000000e+00 
2.50000000e+00 5.00000000e+00 0.00000000e+00 

        </DataArray>
      </Points>
      <Cells>
        <DataArray type="Int32" Name="connectivity" format="ascii">
0 1 5 4
4 5 9 8
8 9 13 12
1 2 6 5
5 6 10 9
9 10 14 13
2 3 7 6
6 7 11 10
10 11 15 14

        </DataArray>
        <DataArray type="Int32" Name="offsets" format="ascii">
4 8 12 16 20 24 28 32 36 
        </DataArray>
        <DataArray type="UInt8" Name="types" format="ascii">
9 9 9 9 9 9 9 9 9 
        </DataArray>
      </Cells>
      <PointData>
        <DataArray type="Float64" Name="u">
          2.00000000e+02 1.98972545e+02 2.00373147e+02 1.98737253e+02 2.22222222e+02 2.20942293e+02 2.22206079e+02 2.20566214e+02 2.22222222e+02 2.20942293e+02 2.22206079e+02 2.20566214e+02 2.00000000e+02 1.98972545e+02 2.00373147e+02 1.98737253e+02 
        </DataArray>
        <DataArray type="Float64" Name="v">
          0.00000000e+00 -3.05940080e-01 -2.43647404e-01 -8.43547001e-01 0.00000000e+00 -1.41648840e-02 -1.04071364e-01 3.58901687e-02 0.00000000e+00 1.41648839e-02 1.04071364e-01 -3.58901687e-02 0.00000000e+00 3.05940080e-01 2.43647404e-01 8.43547001e-01 
        </DataArray>
        <DataArray type="Float64" Name="p">
          -1.41439694e+03 -2.80512816e+03 -4.19585939e+03 -5.58659061e+03 -1.41439694e+03 -2.80512816e+03 -4.19585939e+03 -5.58659061e+03 -1.41439694e+03 -2.80512816e+03 -4.19585939e+03 -5.58659061e+03 -1.41439694e+03 -2.80512816e+03 -4.19585939e+03 -5.58659061e+03 
        </DataArray>
      </PointData>
    </Piece>
    <Piece NumberOfPoints="16" NumberOfCells="9">
      <Points>
        <DataArray type="Float64" NumberOfComponents="3" format="ascii">
          0.00000000e+00 5.00000000e+00 0.00000000e+00 
8.33333313e-01 5.00000000e+00 0.00000000e+00 
1.66666663e+00 5.00000000e+00 0.00000000e+00 
2.50000000e+00 5.00000000e+00 0.00000000e+00 
0.00000000e+00 5.33333349e+00 0.00000000e+00 
8.33333313e-01 5.33333349e+00 0.00000000e+00 
1.66666663e+00 5.33333349e+00 0.00000000e+00 
2.50000000e+00 5.33333349e+00 0.00000000e+00 
0.00000000e+00 5.66666651e+00 0.00000000e+00 
8.33333313e-01 5.66666651e+00 0.00000000e+00 
1.66666663e+00 5.66666651e+00 0.00000000e+00 
2.50000000e+00 5.66666651e+00 0.00000000e+00 
0.00000000e+00 6.00000000e+00 0.00000000e+00 
8.33333313e-01 6.00000000e+00 0.00000000e+00 
1.66666663e+00 6.00000000e+00 0.00000000e+00 
2.50000000e+00 6.00000000e+00 0.00000000e+00 

        </DataArray>
      </Points>
      <Cells>
        <DataArray type="Int32" Name="connectivity" format="ascii">
0 1 5 4
4 5 9 8
8 9 13 12
1 2 6 5
5 6 10 9
9 10 14 13
2 3 7 6
6 7 11 10
10 11 15 14

        </DataArray>
        <DataArray type="Int32" Name="offsets" format="ascii">
4 8 12 16 20 24 28 32 36 
        </DataArray>
        <DataArray type="UInt8" Name="types" format="ascii">
9 9 9 9 9 9 9 9 9 
        </DataArray>
      </Cells>
      <PointData>
        <DataArray type="Float64" Name="u">
          2.00000000e+02 1.98972545e+02 2.00373147e+02 1.98737253e+02 1.55555556e+02 1.55368323e+02 1.56273722e+02 1.55827957e+02 8.88888889e+01 8.94724277e+01 8.95066942e+01 9.11143274e+01 0.00000000e+00 0.00000000e+00 0.00000000e+00 0.00000000e+00 
        </DataArray>
        <DataArray type="Float64" Name="v">
          0.00000000e+00 3.05940080e-01 2.43647404e-01 8.43547001e-01 0.00000000e+00 2.16613510e-01 2.42323181e-01 8.96009535e-01 0.00000000e+00 2.43923761e-01 4.32170393e-02 1.72685711e+00 0.00000000e+00 0.00000000e+00 0.00000000e+00 0.00000000e+00 
        </DataArray>
        <DataArray type="Float64" Name="p">
          -1.43584775e+03 -2.81938835e+03 -4.20292895e+03 -5.58646955e+03 -1.42523945e+03 -2.82211676e+03 -4.21899406e+03 -5.61587137e+03 -1.41463115e+03 -2.82484516e+03 -4.23505918e+03 -5.64527319e+03 -1.40402285e+03 -2.82757357e+03 -4.25112429e+03 -5.67467501e+03 
        </DataArray>
      </PointData>
    </Piece>
    <Piece NumberOfPoints="16" NumberOfCells="9">
      <Points>
        <DataArray type="Float64" NumberOfComponents="3" format="ascii">
          2.50000000e+00 0.00000000e+00 0.00000000e+00 
3.33333325e+00 0.00000000e+00 0.00000000e+00 
4.16666651e+00 0.00000000e+00 0.00000000e+00 
5.00000000e+00 0.00000000e+00 0.00000000e+00 
2.50000000e+00 3.33333343e-01 0.00000000e+00 
3.33333325e+00 3.33333343e-01 0.00000000e+00 
4.16666651e+00 3.33333343e-01 0.00000000e+00 
5.00000000e+00 3.33333343e-01 0.00000000e+00 
2.50000000e+00 6.66666687e-01 0.00000000e+00 
3.33333325e+00 6.66666687e-01 0.00000000e+00 
4.16666651e+00 6.66666687e-01 0.00000000e+00 
5.00000000e+00 6.66666687e-01 0.00000000e+00 
2.50000000e+00 1.00000000e+00 0.00000000e+00 
3.33333325e+00 1.00000000e+00 0.00000000e+00 
4.16666651e+00 1.00000000e+00 0.00000000e+00 
5.00000000e+00 1.00000000e+00 0.00000000e+00 

        </DataArray>
      </Points>
      <Cells>
        <DataArray type="Int32" Name="connectivity" format="ascii">
0 1 5 4
4 5 9 8
8 9 13 12
1 2 6 5
5 6 10 9
9 10 14 13
2 3 7 6
6 7 11 10
10 11 15 14

        </DataArray>
        <DataArray type="Int32" Name="offsets" format="ascii">
4 8 12 16 20 24 28 32 36 
        </DataArray>
        <DataArray type="UInt8" Name="types" format="ascii">
9 9 9 9 9 9 9 9 9 
        </DataArray>
      </Cells>
      <PointData>
        <DataArray type="Float64" Name="u">
          0.00000000e+00 0.00000000e+00 0.00000000e+00 0.00000000e+00 0.00000000e+00 -3.05735719e+00 -5.13235504e+00 -9.22533071e+00 0.00000000e+00 -5.31226470e+00 -9.15674624e+00 -1.54892023e+01 0.00000000e+00 -6.80064812e+00 -1.15672492e+01 -1.84903217e+01 
        </DataArray>
        <DataArray type="Float64" Name="v">
          0.00000000e+00 0.00000000e+00 0.00000000e+00 0.00000000e+00 0.00000000e+00 8.95539557e-01 9.59808246e-01 6.54614403e-01 0.00000000e+00 2.64402468e+00 2.63805035e+00 1.74159839e+00 0.00000000e+00 5.78132183e+00 5.40093311e+00 3.50680348e+00 
        </DataArray>
        <DataArray type="Float64" Name="p">
          -5.24715272e+03 -5.19500965e+03 -5.14286659e+03 -5.09072352e+03 -5.23339139e+03 -5.18120762e+03 -5.12902386e+03 -5.07684009e+03 -5.21963005e+03 -5.16740559e+03 -5.11518113e+03 -5.06295667e+03 -5.20586872e+03 -5.15360356e+03 -5.10133840e+03 -5.04907324e+03 
        </DataArray>
      </PointData>
    </Piece>
    <Piece NumberOfPoints="16" NumberOfCells="9">
      <Points>
        <DataArray type="Float64" NumberOfComponents="3" format="ascii">
          2.50000000e+00 1.00000000e+00 0.00000000e+00 
3.33333325e+00 1.00000000e+00 0.00000000e+00 
4.16666651e+00 1.00000000e+00 0.00000000e+00 
5.00000000e+00 1.00000000e+00 0.00000000e+00 
2.50000000e+00 1.33333337e+00 0.00000000e+00 
3.33333325e+00 1.33333337e+00 0.00000000e+00 
4.16666651e+00 1.33333337e+00 0.00000000e+00 
5.00000000e+00 1.33333337e+00 0.00000000e+00 
2.50000000e+00 1.66666663e+00 0.00000000e+00 
3.33333325e+00 1.66666663e+00 0.00000000e+00 
4.16666651e+00 1.66666663e+00 0.00000000e+00 
5.00000000e+00 1.66666663e+00 0.00000000e+00 
2.50000000e+00 2.00000000e+00 0.00000000e+00 
3.33333325e+00 2.00000000e+00 0.00000000e+00 
4.16666651e+00 2.00000000e+00 0.00000000e+00 
5.00000000e+00 2.00000000e+00 0.00000000e+00 

        </DataArray>
      </Points>
      <Cells>
        <DataArray type="Int32" Name="connectivity" format="ascii">
0 1 5 4
4 5 9 8
8 9 13 12
1 2 6 5
5 6 10 9
9 10 14 13
2 3 7 6
6 7 11 10
10 11 15 14

        </DataArray>
        <DataArray type="Int32" Name="offsets" format="ascii">
4 8 12 16 20 24 28 32 36 
        </DataArray>
        <DataArray type="UInt8" Name="types" format="ascii">
9 9 9 9 9 9 9 9 9 
        </DataArray>
      </Cells>
      <PointData>
        <DataArray type="Float64" Name="u">
          0.00000000e+00 -6.80064812e+00 -1.15672492e+01 -1.84903217e+01 0.00000000e+00 -7.52101655e+00 -1.20079657e+01 -1.80360696e+01 0.00000000e+00 -7.22817162e+00 -1.00362831e+01 -1.35138353e+01 0.00000000e+00 -5.34126619e+00 -4.93778320e+00 -4.21561559e+00 
        </DataArray>
        <DataArray type="Float64" Name="v">
          0.00000000e+00 5.78132183e+00 5.40093311e+00 3.50680348e+00 0.00000000e+00 9.55352347e+00 8.19973221e+00 4.82830227e+00 0.00000000e+00 1.24497227e+01 1.01050816e+01 5.22125621e+00 0.00000000e+00 1.54404108e+01 1.11245592e+01 4.30091901e+00 
        </DataArray>
        <DataArray type="Float64" Name="p">
          -5.18993613e+03 -5.14729078e+03 -5.10464544e+03 -5.06200010e+03 -5.28538537e+03 -5.22684192e+03 -5.16829847e+03 -5.10975503e+03 -5.38083461e+03 -5.30639306e+03 -5.23195150e+03 -5.15750995e+03 -5.47628385e+03 -5.38594419e+03 -5.29560454e+03 -5.20526488e+03 
        </DataArray>
      </PointData>
    </Piece>
    <Piece NumberOfPoints="16" NumberOfCells="9">
      <Points>
        <DataArray type="Float64" NumberOfComponents="3" format="ascii">
          2.50000000e+00 2.00000000e+00 0.00000000e+00 
3.33333325e+00 2.00000000e+00 0.00000000e+00 
4.16666651e+00 2.00000000e+00 0.00000000e+00 
5.00000000e+00 2.00000000e+00 0.00000000e+00 
2.50000000e+00 2.33333325e+00 0.00000000e+00 
3.33333325e+00 2.33333325e+00 0.00000000e+00 
4.16666651e+00 2.33333325e+00 0.00000000e+00 
5.00000000e+00 2.33333325e+00 0.00000000e+00 
2.50000000e+00 2.66666675e+00 0.00000000e+00 
3.33333325e+00 2.66666675e+00 0.00000000e+00 
4.16666651e+00 2.66666675e+00 0.00000000e+00 
5.00000000e+00 2.66666675e+00 0.00000000e+00 
2.50000000e+00 3.00000000e+00 0.00000000e+00 
3.33333325e+00 3.00000000e+00 0.00000000e+00 
4.16666651e+00 3.00000000e+00 0.00000000e+00 
5.00000000e+00 3.00000000e+00 0.00000000e+00 

        </DataArray>
      </Points>
      <Cells>
        <DataArray type="Int32" Name="connectivity" format="ascii">
0 1 5 4
4 5 9 8
8 9 13 12
1 2 6 5
5 6 10 9
9 10 14 13
2 3 7 6
6 7 11 10
10 11 15 14

        </DataArray>
        <DataArray type="Int32" Name="offsets" format="ascii">
4 8 12 16 20 24 28 32 36 
        </DataArray>
        <DataArray type="UInt8" Name="types" format="ascii">
9 9 9 9 9 9 9 9 9 
        </DataArray>
      </Cells>
      <PointData>
        <DataArray type="Float64" Name="u">
          0.00000000e+00 -5.34126619e+00 -4.93778320e+00 -4.21561559e+00 0.00000000e+00 -6.07222303e-01 3.97497501e+00 1.21895686e+01 0.00000000e+00 1.25663224e+01 2.10172858e+01 3.58777409e+01 0.00000000e+00 4.67387831e+01 5.23071987e+01 6.94647974e+01 
        </DataArray>
        <DataArray type="Float64" Name="v">
          0.00000000e+00 1.54404108e+01 1.11245592e+01 4.30091901e+00 0.00000000e+00 1.68725537e+01 9.10410527e+00 1.08073538e+00 0.00000000e+00 1.33310001e+01 6.10476637e+00 -1.54892403e+00 0.00000000e+00 2.00944923e+00 -7.90734892e-01 -3.44075811e+00 
        </DataArray>
        <DataArray type="Float64" Name="p">
          -5.43811787e+03 -5.39669408e+03 -5.35527030e+03 -5.31384652e+03 -5.78065279e+03 -5.56633646e+03 -5.35202013e+03 -5.13770380e+03 -6.12318771e+03 -5.73597883e+03 -5.34876996e+03 -4.96156108e+03 -6.46572262e+03 -5.90562120e+03 -5.34551978e+03 -4.78541836e+03 
        </DataArray>
      </PointData>
    </Piece>
    <Piece NumberOfPoints="16" NumberOfCells="9">
      <Points>
        <DataArray type="Float64" NumberOfComponents="3" format="ascii">
          2.50000000e+00 3.00000000e+00 0.00000000e+00 
3.33333325e+00 3.00000000e+00 0.00000000e+00 
4.16666651e+00 3.00000000e+00 0.00000000e+00 
5.00000000e+00 3.00000000e+00 0.00000000e+00 
2.50000000e+00 3.33333325e+00 0.00000000e+00 
3.33333325e+00 3.33333325e+00 0.00000000e+00 
4.16666651e+00 3.33333325e+00 0.00000000e+00 
5.00000000e+00 3.33333325e+00 0.00000000e+00 
2.50000000e+00 3.66666675e+00 0.00000000e+00 
3.33333325e+00 3.66666675e+00 0.00000000e+00 
4.16666651e+00 3.66666675e+00 0.00000000e+00 
5.00000000e+00 3.66666675e+00 0.00000000e+00 
2.50000000e+00 4.00000000e+00 0.00000000e+00 
3.33333325e+00 4.00000000e+00 0.00000000e+00 
4.16666651e+00 4.00000000e+00 0.00000000e+00 
5.00000000e+00 4.00000000e+00 0.00000000e+00 

        </DataArray>
      </Points>
      <Cells>
        <DataArray type="Int32" Name="connectivity" format="ascii">
0 1 5 4
4 5 9 8
8 9 13 12
1 2 6 5
5 6 10 9
9 10 14 13
2 3 7 6
6 7 11 10
10 11 15 14

        </DataArray>
        <DataArray type="Int32" Name="offsets" format="ascii">
4 8 12 16 20 24 28 32 36 
        </DataArray>
        <DataArray type="UInt8" Name="types" format="ascii">
9 9 9 9 9 9 9 9 9 
        </DataArray>
      </Cells>
      <PointData>
        <DataArray type="Float64" Name="u">
          0.00000000e+00 4.67387831e+01 5.23071987e+01 6.94647974e+01 9.11143274e+01 9.60888648e+01 1.00666630e+02 1.06291922e+02 1.55827957e+02 1.51196368e+02 1.51025216e+02 1.48241134e+02 1.98737253e+02 1.91509349e+02 1.90086996e+02 1.82218774e+02 
        </DataArray>
        <DataArray type="Float64" Name="v">
          0.00000000e+00 2.00944923e+00 -7.90734892e-01 -3.44075811e+00 -1.72685711e+00 -6.71984254e+00 -5.17055381e+00 -2.48373635e+00 -8.96009535e-01 -7.02649417e+00 -6.80944922e+00 -3.05391802e+00 -8.43547001e-01 -4.58555628e+00 -4.31970930e+00 -2.51272510e+00 
        </DataArray>
        <DataArray type="Float64" Name="p">
          -6.52910230e+03 -5.87606822e+03 -5.22303415e+03 -4.57000007e+03 -6.02472140e+03 -5.63322320e+03 -5.24172500e+03 -4.85022680e+03 -5.52034051e+03 -5.39037818e+03 -5.26041585e+03 -5.13045352e+03 -5.01595962e+03 -5.14753316e+03 -5.27910671e+03 -5.41068025e+03 
        </DataArray>
      </PointData>
    </Piece>
    <Piece NumberOfPoints="16" NumberOfCells="9">
      <Points>
        <DataArray type="Float64" NumberOfComponents="3" format="ascii">
          2.50000000e+00 4.00000000e+00 0.00000000e+00 
3.33333325e+00 4.00000000e+00 0.00000000e+00 
4.16666651e+00 4.00000000e+00 0.00000000e+00 
5.00000000e+00 4.00000000e+00 0.00000000e+00 
2.50000000e+00 4.33333349e+00 0.00000000e+00 
3.33333325e+00 4.33333349e+00 0.00000000e+00 
4.16666651e+00 4.33333349e+00 0.00000000e+00 
5.00000000e+00 4.33333349e+00 0.00000000e+00 
2.50000000e+00 4.66666651e+00 0.00000000e+00 
3.33333325e+00 4.66666651e+00 0.00000000e+00 
4.16666651e+00 4.66666651e+00 0.00000000e+00 
5.00000000e+00 4.66666651e+00 0.00000000e+00 
2.50000000e+00 5.00000000e+00 0.00000000e+00 
3.33333325e+00 5.00000000e+00 0.00000000e+00 
4.16666651e+00 5.00000000e+00 0.00000000e+00 
5.00000000e+00 5.00000000e+00 0.00000000e+00 

        </DataArray>
      </Points>
      <Cells>
        <DataArray type="Int32" Name="connectivity" format="ascii">
0 1 5 4
4 5 9 8
8 9 13 12
1 2 6 5
5 6 10 9
9 10 14 13
2 3 7 6
6 7 11 10
10 11 15 14

        </DataArray>
        <DataArray type="Int32" Name="offsets" format="ascii">
4 8 12 16 20 24 28 32 36 
        </DataArray>
        <DataArray type="UInt8" Name="types" format="ascii">
9 9 9 9 9 9 9 9 9 
        </DataArray>
      </Cells>
      <PointData>
        <DataArray type="Float64" Name="u">
          1.98737253e+02 1.91509349e+02 1.90086996e+02 1.82218774e+02 2.20566214e+02 2.12367683e+02 2.09825784e+02 2.01012316e+02 2.20566214e+02 2.12367683e+02 2.09825784e+02 2.01012316e+02 1.98737253e+02 1.91509349e+02 1.90086996e+02 1.82218774e+02 
        </DataArray>
        <DataArray type="Float64" Name="v">
          -8.43547001e-01 -4.58555628e+00 -4.31970930e+00 -2.51272510e+00 3.58901687e-02 -5.65493385e-01 -1.28768834e+00 -1.18915276e+00 -3.58901687e-02 5.65493385e-01 1.28768834e+00 1.18915276e+00 8.43547001e-01 4.58555628e+00 4.31970930e+00 2.51272510e+00 
        </DataArray>
        <DataArray type="Float64" Name="p">
          -4.84643682e+03 -5.06739593e+03 -5.28835504e+03 -5.50931414e+03 -4.84643682e+03 -5.06739593e+03 -5.28835504e+03 -5.50931414e+03 -4.84643682e+03 -5.06739593e+03 -5.28835504e+03 -5.50931414e+03 -4.84643682e+03 -5.06739593e+03 -5.28835504e+03 -5.50931414e+03 
        </DataArray>
      </PointData>
    </Piece>
    <Piece NumberOfPoints="16" NumberOfCells="9">
      <Points>
        <DataArray type="Float64" NumberOfComponents="3" format="ascii">
          2.50000000e+00 5.00000000e+00 0.00000000e+00 
3.33333325e+00 5.00000000e+00 0.00000000e+00 
4.16666651e+00 5.00000000e+00 0.00000000e+00 
5.00000000e+00 5.00000000e+00 0.00000000e+00 
2.50000000e+00 5.33333349e+00 0.00000000e+00 
3.33333325e+00 5.33333349e+00 0.00000000e+00 
4.16666651e+00 5.33333349e+00 0.00000000e+00 
5.00000000e+00 5.33333349e+00 0.00000000e+00 
2.50000000e+00 5.66666651e+00 0.00000000e+00 
3.33333325e+00 5.66666651e+00 0.00000000e+00 
4.16666651e+00 5.66666651e+00 0.00000000e+00 
5.00000000e+00 5.66666651e+00 0.00000000e+00 
2.50000000e+00 6.00000000e+00 0.00000000e+00 
3.33333325e+00 6.00000000e+00 0.00000000e+00 
4.16666651e+00 6.00000000e+00 0.00000000e+00 
5.00000000e+00 6.00000000e+00 0.00000000e+00 

        </DataArray>
      </Points>
      <Cells>
        <DataArray type="Int32" Name="connectivity" format="ascii">
0 1 5 4
4 5 9 8
8 9 13 12
1 2 6 5
5 6 10 9
9 10 14 13
2 3 7 6
6 7 11 10
10 11 15 14

        </DataArray>
        <DataArray type="Int32" Name="offsets" format="ascii">
4 8 12 16 20 24 28 32 36 
        </DataArray>
        <DataArray type="UInt8" Name="types" format="ascii">
9 9 9 9 9 9 9 9 9 
        </DataArray>
      </Cells>
      <PointData>
        <DataArray type="Float64" Name="u">
          1.98737253e+02 1.91509349e+02 1.90086996e+02 1.82218774e+02 1.55827957e+02 1.51196368e+02 1.51025216e+02 1.48241134e+02 9.11143274e+01 9.60888648e+01 1.00666630e+02 1.06291922e+02 0.00000000e+00 4.67387831e+01 5.23071987e+01 6.94647974e+01 
        </DataArray>
        <DataArray type="Float64" Name="v">
          8.43547001e-01 4.58555628e+00 4.31970930e+00 2.51272510e+00 8.96009535e-01 7.02649417e+00 6.80944922e+00 3.05391802e+00 1.72685711e+00 6.71984254e+00 5.17055381e+00 2.48373635e+00 0.00000000e+00 -2.00944923e+00 7.90734892e-01 3.44075811e+00 
        </DataArray>
        <DataArray type="Float64" Name="p">
          -5.01595962e+03 -5.14753316e+03 -5.27910671e+03 -5.41068025e+03 -5.52034051e+03 -5.39037818e+03 -5.26041585e+03 -5.13045352e+03 -6.02472140e+03 -5.63322320e+03 -5.24172500e+03 -4.85022680e+03 -6.52910230e+03 -5.87606822e+03 -5.22303415e+03 -4.57000007e+03 
        </DataArray>
      </PointData>
    </Piece>
    <Piece NumberOfPoints="16" NumberOfCells="9">
      <Points>
        <DataArray type="Float64" NumberOfComponents="3" format="ascii">
          2.50000000e+00 6.00000000e+00 0.00000000e+00 
3.33333325e+00 6.00000000e+00 0.00000000e+00 
4.16666651e+00 6.00000000e+00 0.00000000e+00 
5.00000000e+00 6.00000000e+00 0.00000000e+00 
2.50000000e+00 6.33333349e+00 0.00000000e+00 
3.33333325e+00 6.33333349e+00 0.00000000e+00 
4.16666651e+00 6.33333349e+00 0.00000000e+00 
5.00000000e+00 6.33333349e+00 0.00000000e+00 
2.50000000e+00 6.66666651e+00 0.00000000e+00 
3.33333325e+00 6.66666651e+00 0.00000000e+00 
4.16666651e+00 6.66666651e+00 0.00000000e+00 
5.00000000e+00 6.66666651e+00 0.00000000e+00 
2.50000000e+00 7.00000000e+00 0.00000000e+00 
3.33333325e+00 7.00000000e+00 0.00000000e+00 
4.16666651e+00 7.00000000e+00 0.00000000e+00 
5.00000000e+00 7.00000000e+00 0.00000000e+00 

        </DataArray>
      </Points>
      <Cells>
        <DataArray type="Int32" Name="connectivity" format="ascii">
0 1 5 4
4 5 9 8
8 9 13 12
1 2 6 5
5 6 10 9
9 10 14 13
2 3 7 6
6 7 11 10
10 11 15 14

        </DataArray>
        <DataArray type="Int32" Name="offsets" format="ascii">
4 8 12 16 20 24 28 32 36 
        </DataArray>
        <DataArray type="UInt8" Name="types" format="ascii">
9 9 9 9 9 9 9 9 9 
        </DataArray>
      </Cells>
      <PointData>
        <DataArray type="Float64" Name="u">
          0.00000000e+00 4.67387831e+01 5.23071987e+01 6.94647974e+01 0.00000000e+00 1.25663224e+01 2.10172858e+01 3.58777409e+01 0.00000000e+00 -6.07222303e-01 3.97497501e+00 1.21895686e+01 0.00000000e+00 -5.34126619e+00 -4.93778320e+00 -4.21561559e+00 
        </DataArray>
        <DataArray type="Float64" Name="v">
          0.00000000e+00 -2.00944923e+00 7.90734892e-01 3.44075811e+00 0.00000000e+00 -1.33310001e+01 -6.10476637e+00 1.54892403e+00 0.00000000e+00 -1.68725537e+01 -9.10410527e+00 -1.08073538e+00 0.00000000e+00 -1.54404108e+01 -1.11245592e+01 -4.30091901e+00 
        </DataArray>
        <DataArray type="Float64" Name="p">
          -6.46572262e+03 -5.90562120e+03 -5.34551978e+03 -4.78541836e+03 -6.12318771e+03 -5.73597883e+03 -5.34876996e+03 -4.96156108e+03 -5.78065279e+03 -5.56633646e+03 -5.35202013e+03 -5.13770380e+03 -5.43811787e+03 -5.39669408e+03 -5.35527030e+03 -5.31384652e+03 
        </DataArray>
      </PointData>
    </Piece>
    <Piece NumberOfPoints="16" NumberOfCells="9">
      <Points>
        <DataArray type="Float64" NumberOfComponents="3" format="ascii">
          2.50000000e+00 7.00000000e+00 0.00000000e+00 
3.33333325e+00 7.00000000e+00 0.00000000e+00 
4.16666651e+00 7.00000000e+00 0.00000000e+00 
5.00000000e+00 7.00000000e+00 0.00000000e+00 
2.50000000e+00 7.33333349e+00 0.00000000e+00 
3.33333325e+00 7.33333349e+00 0.00000000e+00 
4.16666651e+00 7.33333349e+00 0.00000000e+00 
5.00000000e+00 7.33333349e+00 0.00000000e+00 
2.50000000e+00 7.66666651e+00 0.00000000e+00 
3.33333325e+00 7.66666651e+00 0.00000000e+00 
4.16666651e+00 7.66666651e+00 0.00000000e+00 
5.00000000e+00 7.66666651e+00 0.00000000e+00 
2.50000000e+00 8.00000000e+00 0.00000000e+00 
3.33333325e+00 8.00000000e+00 0.00000000e+00 
4.16666651e+00 8.00000000e+00 0.00000000e+00 
5.00000000e+00 8.00000000e+00 0.00000000e+00 

        </DataArray>
      </Points>
      <Cells>
        <DataArray type="Int32" Name="connectivity" format="ascii">
0 1 5 4
4 5 9 8
8 9 13 12
1 2 6 5
5 6 10 9
9 10 14 13
2 3 7 6
6 7 11 10
10 11 15 14

        </DataArray>
        <DataArray type="Int32" Name="offsets" format="ascii">
4 8 12 16 20 24 28 32 36 
        </DataArray>
        <DataArray type="UInt8" Name="types" format="ascii">
9 9 9 9 9 9 9 9 9 
        </DataArray>
      </Cells>
      <PointData>
        <DataArray type="Float64" Name="u">
          0.00000000e+00 -5.34126619e+00 -4.93778320e+00 -4.21561559e+00 0.00000000e+00 -7.22817162e+00 -1.00362831e+01 -1.35138353e+01 0.00000000e+00 -7.52101655e+00 -1.20079657e+01 -1.80360696e+01 0.00000000e+00 -6.80064812e+00 -1.15672492e+01 -1.84903217e+01 
        </DataArray>
        <DataArray type="Float64" Name="v">
          0.00000000e+00 -1.54404108e+01 -1.11245592e+01 -4.30091901e+00 0.00000000e+00 -1.24497227e+01 -1.01050816e+01 -5.22125621e+00 0.00000000e+00 -9.55352347e+00 -8.19973221e+00 -4.82830227e+00 0.00000000e+00 -5.78132183e+00 -5.40093311e+00 -3.50680348e+00 
        </DataArray>
        <DataArray type="Float64" Name="p">
          -5.47628385e+03 -5.38594419e+03 -5.29560454e+03 -5.20526488e+03 -5.38083461e+03 -5.30639306e+03 -5.23195150e+03 -5.15750995e+03 -5.28538537e+03 -5.22684192e+03 -5.16829847e+03 -5.10975503e+03 -5.18993613e+03 -5.14729078e+03 -5.10464544e+03 -5.06200010e+03 
        </DataArray>
      </PointData>
    </Piece>
    <Piece NumberOfPoints="16" NumberOfCells="9">
      <Points>
        <DataArray type="Float64" NumberOfComponents="3" format="ascii">
          2.50000000e+00 8.00000000e+00 0.00000000e+00 
3.33333325e+00 8.00000000e+00 0.00000000e+00 
4.16666651e+00 8.00000000e+00 0.00000000e+00 
5.00000000e+00 8.00000000e+00 0.00000000e+00 
2.50000000e+00 8.33333302e+00 0.00000000e+00 
3.33333325e+00 8.33333302e+00 0.00000000e+00 
4.16666651e+00 8.33333302e+00 0.00000000e+00 
5.00000000e+00 8.33333302e+00 0.00000000e+00 
2.50000000e+00 8.66666698e+00 0.00000000e+00 
3.33333325e+00 8.66666698e+00 0.00000000e+00 
4.16666651e+00 8.66666698e+00 0.00000000e+00 
5.00000000e+00 8.66666698e+00 0.00000000e+00 
2.50000000e+00 9.00000000e+00 0.00000000e+00 
3.33333325e+00 9.00000000e+00 0.00000000e+00 
4.16666651e+00 9.00000000e+00 0.00000000e+00 
5.00000000e+00 9.00000000e+00 0.00000000e+00 

        </DataArray>
      </Points>
      <Cells>
        <DataArray type="Int32" Name="connectivity" format="ascii">
0 1 5 4
4 5 9 8
8 9 13 12
1 2 6 5
5 6 10 9
9 10 14 13
2 3 7 6
6 7 11 10
10 11 15 14

        </DataArray>
        <DataArray type="Int32" Name="offsets" format="ascii">
4 8 12 16 20 24 28 32 36 
        </DataArray>
        <DataArray type="UInt8" Name="types" format="ascii">
9 9 9 9 9 9 9 9 9 
        </DataArray>
      </Cells>
      <PointData>
        <DataArray type="Float64" Name="u">
          0.00000000e+00 -6.80064812e+00 -1.15672492e+01 -1.84903217e+01 0.00000000e+00 -5.31226470e+00 -9.15674624e+00 -1.54892023e+01 0.00000000e+00 -3.05735719e+00 -5.13235504e+00 -9.22533071e+00 0.00000000e+00 0.00000000e+00 0.00000000e+00 0.00000000e+00 
        </DataArray>
        <DataArray type="Float64" Name="v">
          0.00000000e+00 -5.78132183e+00 -5.40093311e+00 -3.50680348e+00 0.00000000e+00 -2.64402468e+00 -2.63805035e+00 -1.74159839e+00 0.00000000e+00 -8.95539557e-01 -9.59808246e-01 -6.54614403e-01 0.00000000e+00 0.00000000e+00 0.00000000e+00 0.00000000e+00 
        </DataArray>
        <DataArray type="Float64" Name="p">
          -5.20586872e+03 -5.15360356e+03 -5.10133840e+03 -5.04907324e+03 -5.21963005e+03 -5.16740559e+03 -5.11518113e+03 -5.06295667e+03 -5.23339139e+03 -5.18120762e+03 -5.12902386e+03 -5.07684009e+03 -5.24715272e+03 -5.19500965e+03 -5.14286659e+03 -5.09072352e+03 
        </DataArray>
      </PointData>
    </Piece>
    <Piece NumberOfPoints="16" NumberOfCells="9">
      <Points>
        <DataArray type="Float64" NumberOfComponents="3" format="ascii">
          5.00000000e+00 0.00000000e+00 0.00000000e+00 
5.83333349e+00 0.00000000e+00 0.00000000e+00 
6.66666651e+00 0.00000000e+00 0.00000000e+00 
7.50000000e+00 0.00000000e+00 0.00000000e+00 
5.00000000e+00 3.33333343e-01 0.00000000e+00 
5.83333349e+00 3.33333343e-01 0.00000000e+00 
6.66666651e+00 3.33333343e-01 0.00000000e+00 
7.50000000e+00 3.33333343e-01 0.00000000e+00 
5.00000000e+00 6.66666687e-01 0.00000000e+00 
5.83333349e+00 6.66666687e-01 0.00000000e+00 
6.66666651e+00 6.66666687e-01 0.00000000e+00 
7.50000000e+00 6.66666687e-01 0.00000000e+00 
5.00000000e+00 1.00000000e+00 0.00000000e+00 
5.83333349e+00 1.00000000e+00 0.00000000e+00 
6.66666651e+00 1.00000000e+00 0.00000000e+00 
7.50000000e+00 1.00000000e+00 0.00000000e+00 

        </DataArray>
      </Points>
      <Cells>
        <DataArray type="Int32" Name="connectivity" format="ascii">
0 1 5 4
4 5 9 8
8 9 13 12
1 2 6 5
5 6 10 9
9 10 14 13
2 3 7 6
6 7 11 10
10 11 15 14

        </DataArray>
        <DataArray type="Int32" Name="offsets" format="ascii">
4 8 12 16 20 24 28 32 36 
        </DataArray>
        <DataArray type="UInt8" Name="types" format="ascii">
9 9 9 9 9 9 9 9 9 
        </DataArray>
      </Cells>
      <PointData>
        <DataArray type="Float64" Name="u">