<?xml version="1.0"?>
<VTKFile type="UnstructuredGrid" version="0.1" byte_order="LittleEndian">
  <UnstructuredGrid>
    <Piece NumberOfPoints="16" NumberOfCells="9">
      <Points>
        <DataArray type="Float64" NumberOfComponents="3" format="ascii">
          0.00000000e+00 3.00000000e+00 0.00000000e+00 
8.33333313e-01 3.00000000e+00 0.00000000e+00 
1.66666663e+00 3.00000000e+00 0.00000000e+00 
2.50000000e+00 3.00000000e+00 0.00000000e+00 
0.00000000e+00 3.33333325e+00 0.00000000e+00 
8.33333313e-01 3.33333325e+00 0.00000000e+00 
1.66666663e+00 3.33333325e+00 0.00000000e+00 
2.50000000e+00 3.33333325e+00 0.00000000e+00 
0.00000000e+00 3.66666675e+00 0.00000000e+00 
8.33333313e-01 3.66666675e+00 0.00000000e+00 
1.66666663e+00 3.66666675e+00 0.00000000e+00 
2.50000000e+00 3.66666675e+00 0.00000000e+00 
0.00000000e+00 4.00000000e+00 0.00000000e+00 
8.33333313e-01 4.00000000e+00 0.00000000e+00 
1.66666663e+00 4.00000000e+00 0.00000000e+00 
2.50000000e+00 4.00000000e+00 0.00000000e+00 

        </DataArray>
      </Points>
      <Cells>
        <DataArray type="Int32" Name="connectivity" format="ascii">
0 1 5 4
4 5 9 8
8 9 13 12
1 2 6 5
5 6 10 9
9 10 14 13
2 3 7 6
6 7 11 10
10 11 15 14

        </DataArray>
        <DataArray type="Int32" Name="offsets" format="ascii">
4 8 12 16 20 24 28 32 36 
        </DataArray>
        <DataArray type="UInt8" Name="types" format="ascii">
9 9 9 9 9 9 9 9 9 
        </DataArray>
      </Cells>
      <PointData>
        <DataArray type="Float64" Name="u">
          0.00000000e+00 0.00000000e+00 0.00000000e+00 0.00000000e+00 8.88888889e+01 8.94779963e+01 8.95195210e+01 9.11856200e+01 1.55555556e+02 1.55363415e+02 1.56294201e+02 1.55836122e+02 2.00000000e+02 1.98948852e+02 2.00389948e+02 1.98696965e+02 
        </DataArray>
        <DataArray type="Float64" Name="v">
          0.00000000e+00 0.00000000e+00 0.00000000e+00 0.00000000e+00 0.00000000e+00 -2.45072383e-01 -4.79007750e-02 -1.78360825e+00 0.00000000e+00 -2.22026467e-01 -2.46934015e-01 -9.47283451e-01 0.00000000e+00 -3.11665698e-01 -2.54344797e-01 -8.73511190e-01 
        </DataArray>
        <DataArray type="Float64" Name="p">
          -1.22964432e+03 -2.69002780e+03 -4.15041128e+03 -5.61079476e+03 -1.24104621e+03 -2.68726847e+03 -4.13349072e+03 -5.57971298e+03 -1.25244811e+03 -2.68450914e+03 -4.11657017e+03 -5.54863119e+03 -1.26385000e+03 -2.68174980e+03 -4.09964961e+03 -5.51754941e+03 
        </DataArray>
      </PointData>
    </Piece>
    <Piece NumberOfPoints="16" NumberOfCells="9">
      <Points>
        <DataArray type="Float64" NumberOfComponents="3" format="ascii">
          0.00000000e+00 4.00000000e+00 0.00000000e+00 
8.33333313e-01 4.00000000e+00 0.00000000e+00 
1.66666663e+00 4.00000000e+00 0.00000000e+00 
2.50000000e+00 4.00000000e+00 0.00000000e+00 
0.00000000e+00 4.33333349e+00 0.00000000e+00 
8.33333313e-01 4.33333349e+00 0.00000000e+00 
1.66666663e+00 4.33333349e+00 0.00000000e+00 
2.50000000e+00 4.33333349e+00 0.00000000e+00 
0.00000000e+00 4.66666651e+00 0.00000000e+00 
8.33333313e-01 4.66666651e+00 0.00000000e+00 
1.66666663e+00 4.66666651e+00 0.00000000e+00 
2.50000000e+00 4.66666651e+00 0.00000000e+00 
0.00000000e+00 5.00000000e+00 0.00000000e+00 
8.33333313e-01 5.00000000e+00 0.00000000e+00 
1.66666663e+00 5.00000000e+00 0.00000000e+00 
2.50000000e+00 5.00000000e+00 0.00000000e+00 

        </DataArray>
      </Points>
      <Cells>
        <DataArray type="Int32" Name="connectivity" format="ascii">
0 1 5 4
4 5 9 8
8 9 13 12
1 2 6 5
5 6 10 9
9 10 14 13
2 3 7 6
6 7 11 10
10 11 15 14

        </DataArray>
        <DataArray type="Int32" Name="offsets" format="ascii">
4 8 12 16 20 24 28 32 36 
        </DataArray>
        <DataArray type="UInt8" Name="types" format="ascii">
9 9 9 9 9 9 9 9 9 
        </DataArray>
      </Cells>
      <PointData>
        <DataArray type="Float64" Name="u">
          2.00000000e+02 1.98948852e+02 2.00389948e+02 1.98696965e+02 2.22222222e+02 2.20907106e+02 2.22211894e+02 2.20513615e+02 2.22222222e+02 2.20907106e+02 2.22211894e+02 2.20513615e+02 2.00000000e+02 1.98948852e+02 2.00389948e+02 1.98696965e+02 
        </DataArray>
        <DataArray type="Float64" Name="v">
          0.00000000e+00 -3.11665698e-01 -2.54344797e-01 -8.73511190e-01 0.00000000e+00 -1.57327661e-02 -1.07019447e-01 3.33858808e-02 0.00000000e+00 1.57327661e-02 1.07019447e-01 -3.33858808e-02 0.00000000e+00 3.11665698e-01 2.54344797e-01 8.73511190e-01 
        </DataArray>
        <DataArray type="Float64" Name="p">
          -1.24200993e+03 -2.66696255e+03 -4.09191517e+03 -5.51686779e+03 -1.24200993e+03 -2.66696255e+03 -4.09191517e+03 -5.51686779e+03 -1.24200993e+03 -2.66696255e+03 -4.09191517e+03 -5.51686779e+03 -1.24200993e+03 -2.66696255e+03 -4.09191517e+03 -5.51686779e+03 
        </DataArray>
      </PointData>
    </Piece>
    <Piece NumberOfPoints="16" NumberOfCells="9">
      <Points>
        <DataArray type="Float64" NumberOfComponents="3" format="ascii">
          0.00000000e+00 5.00000000e+00 0.00000000e+00 
8.33333313e-01 5.00000000e+00 0.00000000e+00 
1.66666663e+00 5.00000000e+00 0.00000000e+00 
2.50000000e+00 5.00000000e+00 0.00000000e+00 
0.00000000e+00 5.33333349e+00 0.00000000e+00 
8.33333313e-01 5.33333349e+00 0.00000000e+00 
1.66666663e+00 5.33333349e+00 0.00000000e+00 
2.50000000e+00 5.33333349e+00 0.00000000e+00 
0.00000000e+00 5.66666651e+00 0.00000000e+00 
8.33333313e-01 5.66666651e+00 0.00000000e+00 
1.66666663e+00 5.66666651e+00 0.00000000e+00 
2.50000000e+00 5.66666651e+00 0.00000000e+00 
0.00000000e+00 6.00000000e+00 0.00000000e+00 
8.33333313e-01 6.00000000e+00 0.00000000e+00 
1.66666663e+00 6.00000000e+00 0.00000000e+00 
2.50000000e+00 6.00000000e+00 0.00000000e+00 

        </DataArray>
      </Points>
      <Cells>
        <DataArray type="Int32" Name="connectivity" format="ascii">
0 1 5 4
4 5 9 8
8 9 13 12
1 2 6 5
5 6 10 9
9 10 14 13
2 3 7 6
6 7 11 10
10 11 15 14

        </DataArray>
        <DataArray type="Int32" Name="offsets" format="ascii">
4 8 12 16 20 24 28 32 36 
        </DataArray>
        <DataArray type="UInt8" Name="types" format="ascii">
9 9 9 9 9 9 9 9 9 
        </DataArray>
      </Cells>
      <PointData>
        <DataArray type="Float64" Name="u">
          2.00000000e+02 1.98948852e+02 2.00389948e+02 1.98696965e+02 1.55555556e+02 1.55363415e+02 1.56294201e+02 1.55836122e+02 8.88888889e+01 8.94779963e+01 8.95195210e+01 9.11856200e+01 0.00000000e+00 0.00000000e+00 0.00000000e+00 0.00000000e+00 
        </DataArray>
        <DataArray type="Float64" Name="v">
          0.00000000e+00 3.11665698e-01 2.54344797e-01 8.73511190e-01 0.00000000e+00 2.22026467e-01 2.46934015e-01 9.47283451e-01 0.00000000e+00 2.45072383e-01 4.79007750e-02 1.78360825e+00 0.00000000e+00 0.00000000e+00 0.00000000e+00 0.00000000e+00 
        </DataArray>
        <DataArray type="Float64" Name="p">
          -1.26385000e+03 -2.68174980e+03 -4.09964961e+03 -5.51754941e+03 -1.25244811e+03 -2.68450914e+03 -4.11657017e+03 -5.54863119e+03 -1.24104621e+03 -2.68726847e+03 -4.13349072e+03 -5.57971298e+03 -1.22964432e+03 -2.69002780e+03 -4.15041128e+03 -5.61079476e+03 
        </DataArray>
      </PointData>
    </Piece>
    <Piece NumberOfPoints="16" NumberOfCells="9">
      <Points>
        <DataArray type="Float64" NumberOfComponents="3" format="ascii">
          2.50000000e+00 0.00000000e+00 0.00000000e+00 
3.33333325e+00 0.00000000e+00 0.00000000e+00 
4.16666651e+00 0.00000000e+00 0.00000000e+00 
5.00000000e+00 0.00000000e+00 0.00000000e+00 
2.50000000e+00 3.33333343e-01 0.00000000e+00 
3.33333325e+00 3.33333343e-01 0.00000000e+00 
4.16666651e+00 3.33333343e-01 0.00000000e+00 
5.00000000e+00 3.33333343e-01 0.00000000e+00 
2.50000000e+00 6.66666687e-01 0.00000000e+00 
3.33333325e+00 6.66666687e-01 0.00000000e+00 
4.16666651e+00 6.66666687e-01 0.00000000e+00 
5.00000000e+00 6.66666687e-01 0.00000000e+00 
2.50000000e+00 1.00000000e+00 0.00000000e+00 
3.33333325e+00 1.00000000e+00 0.00000000e+00 
4.16666651e+00 1.00000000e+00 0.00000000e+00 
5.00000000e+00 1.00000000e+00 0.00000000e+00 

        </DataArray>
      </Points>
      <Cells>
        <DataArray type="Int32" Name="connectivity" format="ascii">
0 1 5 4
4 5 9 8
8 9 13 12
1 2 6 5
5 6 10 9
9 10 14 13
2 3 7 6
6 7 11 10
10 11 15 14

        </DataArray>
        <DataArray type="Int32" Name="offsets" format="ascii">
4 8 12 16 20 24 28 32 36 
        </DataArray>
        <DataArray type="UInt8" Name="types" format="ascii">
9 9 9 9 9 9 9 9 9 
        </DataArray>
      </Cells>
      <PointData>
        <DataArray type="Float64" Name="u">
          0.00000000e+00 0.00000000e+00 0.00000000e+00 0.00000000e+00 0.00000000e+00 -3.10941590e+00 -5.18878775e+00 -9.32701367e+00 0.00000000e+00 -5.38856637e+00 -9.23659352e+00 -1.56171203e+01 0.00000000e+00 -6.88186396e+00 -1.16377265e+01 -1.85916124e+01 
        </DataArray>
        <DataArray type="Float64" Name="v">
          0.00000000e+00 0.00000000e+00 0.00000000e+00 0.00000000e+00 0.00000000e+00 9.08554603e-01 9.72337943e-01 6.53588281e-01 0.00000000e+00 2.67723586e+00 2.66497579e+00 1.73681632e+00 0.00000000e+00 5.84650547e+00 5.44513923e+00 3.49467164e+00 
        </DataArray>
        <DataArray type="Float64" Name="p">
          -5.16679328e+03 -5.11123474e+03 -5.05567621e+03 -5.00011768e+03 -5.15250687e+03 -5.09700447e+03 -5.04150207e+03 -4.98599967e+03 -5.13822047e+03 -5.08277420e+03 -5.02732792e+03 -4.97188165e+03 -5.12393406e+03 -5.06854392e+03 -5.01315378e+03 -4.95776364e+03 
        </DataArray>
      </PointData>
    </Piece>
    <Piece NumberOfPoints="16" NumberOfCells="9">
      <Points>
        <DataArray type="Float64" NumberOfComponents="3" format="ascii">
          2.50000000e+00 1.00000000e+00 0.00000000e+00 
3.33333325e+00 1.00000000e+00 0.00000000e+00 
4.16666651e+00 1.00000000e+00 0.00000000e+00 
5.00000000e+00 1.00000000e+00 0.00000000e+00 
2.50000000e+00 1.33333337e+00 0.00000000e+00 
3.33333325e+00 1.33333337e+00 0.00000000e+00 
4.16666651e+00 1.33333337e+00 0.00000000e+00 
5.00000000e+00 1.33333337e+00 0.00000000e+00 
2.50000000e+00 1.66666663e+00 0.00000000e+00 
3.33333325e+00 1.66666663e+00 0.00000000e+00 
4.16666651e+00 1.66666663e+00 0.00000000e+00 
5.00000000e+00 1.66666663e+00 0.00000000e+00 
2.50000000e+00 2.00000000e+00 0.00000000e+00 
3.33333325e+00 2.00000000e+00 0.00000000e+00 
4.16666651e+00 2.00000000e+00 0.00000000e+00 
5.00000000e+00 2.00000000e+00 0.00000000e+00 

        </DataArray>
      </Points>
      <Cells>
        <DataArray type="Int32" Name="connectivity" format="ascii">
0 1 5 4
4 5 9 8
8 9 13 12
1 2 6 5
5 6 10 9
9 10 14 13
2 3 7 6
6 7 11 10
10 11 15 14

        </DataArray>
        <DataArray type="Int32" Name="offsets" format="ascii">
4 8 12 16 20 24 28 32 36 
        </DataArray>
        <DataArray type="UInt8" Name="types" format="ascii">
9 9 9 9 9 9 9 9 9 
        </DataArray>
      </Cells>
      <PointData>
        <DataArray type="Float64" Name="u">
          0.00000000e+00 -6.88186396e+00 -1.16377265e+01 -1.85916124e+01 0.00000000e+00 -7.59352215e+00 -1.20427871e+01 -1.80675671e+01 0.00000000e+00 -7.27577532e+00 -1.00112053e+01 -1.34406863e+01 0.00000000e+00 -5.33969389e+00 -4.82978046e+00 -4.01226354e+00 
        </DataArray>
        <DataArray type="Float64" Name="v">
          0.00000000e+00 5.84650547e+00 5.44513923e+00 3.49467164e+00 0.00000000e+00 9.64578337e+00 8.24729587e+00 4.79640390e+00 0.00000000e+00 1.25541717e+01 1.01451435e+01 5.16102950e+00 0.00000000e+00 1.55419756e+01 1.11324948e+01 4.19764898e+00 
        </DataArray>
        <DataArray type="Float64" Name="p">
          -5.10754815e+03 -5.06217738e+03 -5.01680661e+03 -4.97143584e+03 -5.20657804e+03 -5.14435139e+03 -5.08212475e+03 -5.01989810e+03 -5.30560793e+03 -5.22652540e+03 -5.14744288e+03 -5.06836036e+03 -5.40463781e+03 -5.30869942e+03 -5.21276102e+03 -5.11682262e+03 
        </DataArray>
      </PointData>
    </Piece>
    <Piece NumberOfPoints="16" NumberOfCells="9">
      <Points>
        <DataArray type="Float64" NumberOfComponents="3" format="ascii">
          2.50000000e+00 2.00000000e+00 0.00000000e+00 
3.33333325e+00 2.00000000e+00 0.00000000e+00 
4.16666651e+00 2.00000000e+00 0.00000000e+00 
5.00000000e+00 2.00000000e+00 0.00000000e+00 
2.50000000e+00 2.33333325e+00 0.00000000e+00 
3.33333325e+00 2.33333325e+00 0.00000000e+00 
4.16666651e+00 2.33333325e+00 0.00000000e+00 
5.00000000e+00 2.33333325e+00 0.00000000e+00 
2.50000000e+00 2.66666675e+00 0.00000000e+00 
3.33333325e+00 2.66666675e+00 0.00000000e+00 
4.16666651e+00 2.66666675e+00 0.00000000e+00 
5.00000000e+00 2.66666675e+00 0.00000000e+00 
2.50000000e+00 3.00000000e+00 0.00000000e+00 
3.33333325e+00 3.00000000e+00 0.00000000e+00 
4.16666651e+00 3.00000000e+00 0.00000000e+00 
5.00000000e+00 3.00000000e+00 0.00000000e+00 

        </DataArray>
      </Points>
      <Cells>
        <DataArray type="Int32" Name="connectivity" format="ascii">
0 1 5 4
4 5 9 8
8 9 13 12
1 2 6 5
5 6 10 9
9 10 14 13
2 3 7 6
6 7 11 10
10 11 15 14

        </DataArray>
        <DataArray type="Int32" Name="offsets" format="ascii">
4 8 12 16 20 24 28 32 36 
        </DataArray>
        <DataArray type="UInt8" Name="types" format="ascii">
9 9 9 9 9 9 9 9 9 
        </DataArray>
      </Cells>
      <PointData>
        <DataArray type="Float64" Name="u">
          0.00000000e+00 -5.33969389e+00 -4.82978046e+00 -4.01226354e+00 0.00000000e+00 -5.18142513e-01 4.19310982e+00 1.25216369e+01 0.00000000e+00 1.27912484e+01 2.13556737e+01 3.63007350e+01 0.00000000e+00 4.70283618e+01 5.26404320e+01 6.98704188e+01 
        </DataArray>
        <DataArray type="Float64" Name="v">
          0.00000000e+00 1.55419756e+01 1.11324948e+01 4.19764898e+00 0.00000000e+00 1.69419155e+01 9.07021160e+00 9.40479933e-01 0.00000000e+00 1.33170767e+01 6.00178568e+00 -1.69716434e+00 0.00000000e+00 1.87926596e+00 -9.25395179e-01 -3.57066058e+00 
        </DataArray>
        <DataArray type="Float64" Name="p">
          -5.36551182e+03 -5.31949066e+03 -5.27346950e+03 -5.22744834e+03 -5.71894876e+03 -5.49458734e+03 -5.27022592e+03 -5.04586450e+03 -6.07238570e+03 -5.66968402e+03 -5.26698234e+03 -4.86428067e+03 -6.42582263e+03 -5.84478070e+03 -5.26373877e+03 -4.68269683e+03 
        </DataArray>
      </PointData>
    </Piece>
    <Piece NumberOfPoints="16" NumberOfCells="9">
      <Points>
        <DataArray type="Float64" NumberOfComponents="3" format="ascii">
          2.50000000e+00 3.00000000e+00 0.00000000e+00 
3.33333325e+00 3.00000000e+00 0.00000000e+00 
4.16666651e+00 3.00000000e+00 0.00000000e+00 
5.00000000e+00 3.00000000e+00 0.00000000e+00 
2.50000000e+00 3.33333325e+00 0.00000000e+00 
3.33333325e+00 3.33333325e+00 0.00000000e+00 
4.16666651e+00 3.33333325e+00 0.00000000e+00 
5.00000000e+00 3.33333325e+00 0.00000000e+00 
2.50000000e+00 3.66666675e+00 0.00000000e+00 
3.33333325e+00 3.66666675e+00 0.00000000e+00 
4.16666651e+00 3.66666675e+00 0.00000000e+00 
5.00000000e+00 3.66666675e+00 0.00000000e+00 
2.50000000e+00 4.00000000e+00 0.00000000e+00 
3.33333325e+00 4.00000000e+00 0.00000000e+00 
4.16666651e+00 4.00000000e+00 0.00000000e+00 
5.00000000e+00 4.00000000e+00 0.00000000e+00 

        </DataArray>
      </Points>
      <Cells>
        <DataArray type="Int32" Name="connectivity" format="ascii">
0 1 5 4
4 5 9 8
8 9 13 12
1 2 6 5
5 6 10 9
9 10 14 13
2 3 7 6
6 7 11 10
10 11 15 14

        </DataArray>
        <DataArray type="Int32" Name="offsets" format="ascii">
4 8 12 16 20 24 28 32 36 
        </DataArray>
        <DataArray type="UInt8" Name="types" format="ascii">
9 9 9 9 9 9 9 9 9 
        </DataArray>
      </Cells>
      <PointData>
        <DataArray type="Float64" Name="u">
          0.00000000e+00 4.70283618e+01 5.26404320e+01 6.98704188e+01 9.11856200e+01 9.61927740e+01 1.00807961e+02 1.06458359e+02 1.55836122e+02 1.51106011e+02 1.50906032e+02 1.48052168e+02 1.98696965e+02 1.91316302e+02 1.89811679e+02 1.81753390e+02 
        </DataArray>
        <DataArray type="Float64" Name="v">
          0.00000000e+00 1.87926596e+00 -9.25395179e-01 -3.57066058e+00 -1.78360825e+00 -6.88204810e+00 -5.33357403e+00 -2.62658076e+00 -9.47283451e-01 -7.20141540e+00 -6.96373270e+00 -3.16393586e+00 -8.73511190e-01 -4.69703293e+00 -4.43602470e+00 -2.59364376e+00 
        </DataArray>
        <DataArray type="Float64" Name="p">
          -6.48631977e+03 -5.81332728e+03 -5.14033480e+03 -4.46734231e+03 -5.96928150e+03 -5.56338953e+03 -5.15749756e+03 -4.75160560e+03 -5.45224323e+03 -5.31345178e+03 -5.17466033e+03 -5.03586888e+03 -4.93520496e+03 -5.06351403e+03 -5.19182310e+03 -5.32013216e+03 
        </DataArray>
      </PointData>
    </Piece>
    <Piece NumberOfPoints="16" NumberOfCells="9">
      <Points>
        <DataArray type="Float64" NumberOfComponents="3" format="ascii">
          2.50000000e+00 4.00000000e+00 0.00000000e+00 
3.33333325e+00 4.00000000e+00 0.00000000e+00 
4.16666651e+00 4.00000000e+00 0.00000000e+00 
5.00000000e+00 4.00000000e+00 0.00000000e+00 
2.50000000e+00 4.33333349e+00 0.00000000e+00 
3.33333325e+00 4.33333349e+00 0.00000000e+00 
4.16666651e+00 4.33333349e+00 0.00000000e+00 
5.00000000e+00 4.33333349e+00 0.00000000e+00 
2.50000000e+00 4.66666651e+00 0.00000000e+00 
3.33333325e+00 4.66666651e+00 0.00000000e+00 
4.16666651e+00 4.66666651e+00 0.00000000e+00 
5.00000000e+00 4.66666651e+00 0.00000000e+00 
2.50000000e+00 5.00000000e+00 0.00000000e+00 
3.33333325e+00 5.00000000e+00 0.00000000e+00 
4.16666651e+00 5.00000000e+00 0.00000000e+00 
5.00000000e+00 5.00000000e+00 0.00000000e+00 

        </DataArray>
      </Points>
      <Cells>
        <DataArray type="Int32" Name="connectivity" format="ascii">
0 1 5 4
4 5 9 8
8 9 13 12
1 2 6 5
5 6 10 9
9 10 14 13
2 3 7 6
6 7 11 10
10 11 15 14

        </DataArray>
        <DataArray type="Int32" Name="offsets" format="ascii">
4 8 12 16 20 24 28 32 36 
        </DataArray>
        <DataArray type="UInt8" Name="types" format="ascii">
9 9 9 9 9 9 9 9 9 
        </DataArray>
      </Cells>
      <PointData>
        <DataArray type="Float64" Name="u">
          1.98696965e+02 1.91316302e+02 1.89811679e+02 1.81753390e+02 2.20513615e+02 2.12121159e+02 2.09485687e+02 2.00439533e+02 2.20513615e+02 2.12121159e+02 2.09485687e+02 2.00439533e+02 1.98696965e+02 1.91316302e+02 1.89811679e+02 1.81753390e+02 
        </DataArray>
        <DataArray type="Float64" Name="v">
          -8.73511190e-01 -4.69703293e+00 -4.43602470e+00 -2.59364376e+00 3.33858808e-02 -5.97690489e-01 -1.33087552e+00 -1.21804672e+00 -3.33858808e-02 5.97690489e-01 1.33087552e+00 1.21804672e+00 8.73511190e-01 4.69703293e+00 4.43602470e+00 2.59364376e+00 
        </DataArray>
        <DataArray type="Float64" Name="p">
          -4.76176091e+03 -4.98144087e+03 -5.20112084e+03 -5.42080080e+03 -4.76176091e+03 -4.98144087e+03 -5.20112084e+03 -5.42080080e+03 -4.76176091e+03 -4.98144087e+03 -5.20112084e+03 -5.42080080e+03 -4.76176091e+03 -4.98144087e+03 -5.20112084e+03 -5.42080080e+03 
        </DataArray>
      </PointData>
    </Piece>
    <Piece NumberOfPoints="16" NumberOfCells="9">
      <Points>
        <DataArray type="Float64" NumberOfComponents="3" format="ascii">
          2.50000000e+00 5.00000000e+00 0.00000000e+00 
3.33333325e+00 5.00000000e+00 0.00000000e+00 
4.16666651e+00 5.00000000e+00 0.00000000e+00 
5.00000000e+00 5.00000000e+00 0.00000000e+00 
2.50000000e+00 5.33333349e+00 0.00000000e+00 
3.33333325e+00 5.33333349e+00 0.00000000e+00 
4.16666651e+00 5.33333349e+00 0.00000000e+00 
5.00000000e+00 5.33333349e+00 0.00000000e+00 
2.50000000e+00 5.66666651e+00 0.00000000e+00 
3.33333325e+00 5.66666651e+00 0.00000000e+00 
4.16666651e+00 5.66666651e+00 0.00000000e+00 
5.00000000e+00 5.66666651e+00 0.00000000e+00 
2.50000000e+00 6.00000000e+00 0.00000000e+00 
3.33333325e+00 6.00000000e+00 0.00000000e+00 
4.16666651e+00 6.00000000e+00 0.00000000e+00 
5.00000000e+00 6.00000000e+00 0.00000000e+00 

        </DataArray>
      </Points>
      <Cells>
        <DataArray type="Int32" Name="connectivity" format="ascii">
0 1 5 4
4 5 9 8
8 9 13 12
1 2 6 5
5 6 10 9
9 10 14 13
2 3 7 6
6 7 11 10
10 11 15 14

        </DataArray>
        <DataArray type="Int32" Name="offsets" format="ascii">
4 8 12 16 20 24 28 32 36 
        </DataArray>
        <DataArray type="UInt8" Name="types" format="ascii">
9 9 9 9 9 9 9 9 9 
        </DataArray>
      </Cells>
      <PointData>
        <DataArray type="Float64" Name="u">
          1.98696965e+02 1.91316302e+02 1.89811679e+02 1.81753390e+02 1.55836122e+02 1.51106011e+02 1.50906032e+02 1.48052168e+02 9.11856200e+01 9.61927740e+01 1.00807961e+02 1.06458359e+02 0.00000000e+00 4.70283618e+01 5.26404320e+01 6.98704188e+01 
        </DataArray>
        <DataArray type="Float64" Name="v">
          8.73511190e-01 4.69703293e+00 4.43602470e+00 2.59364376e+00 9.47283451e-01 7.20141540e+00 6.96373270e+00 3.16393586e+00 1.78360825e+00 6.88204810e+00 5.33357403e+00 2.62658076e+00 0.00000000e+00 -1.87926596e+00 9.25395179e-01 3.57066058e+00 
        </DataArray>
        <DataArray type="Float64" Name="p">
          -4.93520496e+03 -5.06351403e+03 -5.19182310e+03 -5.32013216e+03 -5.45224323e+03 -5.31345178e+03 -5.17466033e+03 -5.03586888e+03 -5.96928150e+03 -5.56338953e+03 -5.15749756e+03 -4.75160560e+03 -6.48631977e+03 -5.81332728e+03 -5.14033480e+03 -4.46734231e+03 
        </DataArray>
      </PointData>
    </Piece>
    <Piece NumberOfPoints="16" NumberOfCells="9">
      <Points>
        <DataArray type="Float64" NumberOfComponents="3" format="ascii">
          2.50000000e+00 6.00000000e+00 0.00000000e+00 
3.33333325e+00 6.00000000e+00 0.00000000e+00 
4.16666651e+00 6.00000000e+00 0.00000000e+00 
5.00000000e+00 6.00000000e+00 0.00000000e+00 
2.50000000e+00 6.33333349e+00 0.00000000e+00 
3.33333325e+00 6.33333349e+00 0.00000000e+00 
4.16666651e+00 6.33333349e+00 0.00000000e+00 
5.00000000e+00 6.33333349e+00 0.00000000e+00 
2.50000000e+00 6.66666651e+00 0.00000000e+00 
3.33333325e+00 6.66666651e+00 0.00000000e+00 
4.16666651e+00 6.66666651e+00 0.00000000e+00 
5.00000000e+00 6.66666651e+00 0.00000000e+00 
2.50000000e+00 7.00000000e+00 0.00000000e+00 
3.33333325e+00 7.00000000e+00 0.00000000e+00 
4.16666651e+00 7.00000000e+00 0.00000000e+00 
5.00000000e+00 7.00000000e+00 0.00000000e+00 

        </DataArray>
      </Points>
      <Cells>
        <DataArray type="Int32" Name="connectivity" format="ascii">
0 1 5 4
4 5 9 8
8 9 13 12
1 2 6 5
5 6 10 9
9 10 14 13
2 3 7 6
6 7 11 10
10 11 15 14

        </DataArray>
        <DataArray type="Int32" Name="offsets" format="ascii">
4 8 12 16 20 24 28 32 36 
        </DataArray>
        <DataArray type="UInt8" Name="types" format="ascii">
9 9 9 9 9 9 9 9 9 
        </DataArray>
      </Cells>
      <PointData>
        <DataArray type="Float64" Name="u">
          0.00000000e+00 4.70283618e+01 5.26404320e+01 6.98704188e+01 0.00000000e+00 1.27912484e+01 2.13556737e+01 3.63007350e+01 0.00000000e+00 -5.18142513e-01 4.19310982e+00 1.25216369e+01 0.00000000e+00 -5.33969389e+00 -4.82978046e+00 -4.01226354e+00 
        </DataArray>
        <DataArray type="Float64" Name="v">
          0.00000000e+00 -1.87926596e+00 9.25395179e-01 3.57066058e+00 0.00000000e+00 -1.33170767e+01 -6.00178568e+00 1.69716434e+00 0.00000000e+00 -1.69419155e+01 -9.07021160e+00 -9.40479933e-01 0.00000000e+00 -1.55419756e+01 -1.11324948e+01 -4.19764898e+00 
        </DataArray>
        <DataArray type="Float64" Name="p">
          -6.42582263e+03 -5.84478070e+03 -5.26373877e+03 -4.68269683e+03 -6.07238570e+03 -5.66968402e+03 -5.26698234e+03 -4.86428067e+03 -5.71894876e+03 -5.49458734e+03 -5.27022592e+03 -5.04586450e+03 -5.36551182e+03 -5.31949066e+03 -5.27346950e+03 -5.22744834e+03 
        </DataArray>
      </PointData>
    </Piece>
    <Piece NumberOfPoints="16" NumberOfCells="9">
      <Points>
        <DataArray type="Float64" NumberOfComponents="3" format="ascii">
          2.50000000e+00 7.00000000e+00 0.00000000e+00 
3.33333325e+00 7.00000000e+00 0.00000000e+00 
4.16666651e+00 7.00000000e+00 0.00000000e+00 
5.00000000e+00 7.00000000e+00 0.00000000e+00 
2.50000000e+00 7.33333349e+00 0.00000000e+00 
3.33333325e+00 7.33333349e+00 0.00000000e+00 
4.16666651e+00 7.33333349e+00 0.00000000e+00 
5.00000000e+00 7.33333349e+00 0.00000000e+00 
2.50000000e+00 7.66666651e+00 0.00000000e+00 
3.33333325e+00 7.66666651e+00 0.00000000e+00 
4.16666651e+00 7.66666651e+00 0.00000000e+00 
5.00000000e+00 7.66666651e+00 0.00000000e+00 
2.50000000e+00 8.00000000e+00 0.00000000e+00 
3.33333325e+00 8.00000000e+00 0.00000000e+00 
4.16666651e+00 8.00000000e+00 0.00000000e+00 
5.00000000e+00 8.00000000e+00 0.00000000e+00 

        </DataArray>
      </Points>
      <Cells>
        <DataArray type="Int32" Name="connectivity" format="ascii">
0 1 5 4
4 5 9 8
8 9 13 12
1 2 6 5
5 6 10 9
9 10 14 13
2 3 7 6
6 7 11 10
10 11 15 14

        </DataArray>
        <DataArray type="Int32" Name="offsets" format="ascii">
4 8 12 16 20 24 28 32 36 
        </DataArray>
        <DataArray type="UInt8" Name="types" format="ascii">
9 9 9 9 9 9 9 9 9 
        </DataArray>
      </Cells>
      <PointData>
        <DataArray type="Float64" Name="u">
          0.00000000e+00 -5.33969389e+00 -4.82978046e+00 -4.01226354e+00 0.00000000e+00 -7.27577532e+00 -1.00112053e+01 -1.34406863e+01 0.00000000e+00 -7.59352215e+00 -1.20427871e+01 -1.80675671e+01 0.00000000e+00 -6.88186396e+00 -1.16377265e+01 -1.85916124e+01 
        </DataArray>
        <DataArray type="Float64" Name="v">
          0.00000000e+00 -1.55419756e+01 -1.11324948e+01 -4.19764898e+00 0.00000000e+00 -1.25541717e+01 -1.01451435e+01 -5.16102950e+00 0.00000000e+00 -9.64578337e+00 -8.24729587e+00 -4.79640390e+00 0.00000000e+00 -5.84650547e+00 -5.44513923e+00 -3.49467164e+00 
        </DataArray>
        <DataArray type="Float64" Name="p">
          -5.40463781e+03 -5.30869942e+03 -5.21276102e+03 -5.11682262e+03 -5.30560793e+03 -5.22652540e+03 -5.14744288e+03 -5.06836036e+03 -5.20657804e+03 -5.14435139e+03 -5.08212475e+03 -5.01989810e+03 -5.10754815e+03 -5.06217738e+03 -5.01680661e+03 -4.97143584e+03 
        </DataArray>
      </PointData>
    </Piece>
    <Piece NumberOfPoints="16" NumberOfCells="9">
      <Points>
        <DataArray type="Float64" NumberOfComponents="3" format="ascii">
          2.50000000e+00 8.00000000e+00 0.00000000e+00 
3.33333325e+00 8.00000000e+00 0.00000000e+00 
4.16666651e+00 8.00000000e+00 0.00000000e+00 
5.00000000e+00 8.00000000e+00 0.00000000e+00 
2.50000000e+00 8.33333302e+00 0.00000000e+00 
3.33333325e+00 8.33333302e+00 0.00000000e+00 
4.16666651e+00 8.33333302e+00 0.00000000e+00 
5.00000000e+00 8.33333302e+00 0.00000000e+00 
2.50000000e+00 8.66666698e+00 0.00000000e+00 
3.33333325e+00 8.66666698e+00 0.00000000e+00 
4.16666651e+00 8.66666698e+00 0.00000000e+00 
5.00000000e+00 8.66666698e+00 0.00000000e+00 
2.50000000e+00 9.00000000e+00 0.00000000e+00 
3.33333325e+00 9.00000000e+00 0.00000000e+00 
4.16666651e+00 9.00000000e+00 0.00000000e+00 
5.00000000e+00 9.00000000e+00 0.00000000e+00 

        </DataArray>
      </Points>
      <Cells>
        <DataArray type="Int32" Name="connectivity" format="ascii">
0 1 5 4
4 5 9 8
8 9 13 12
1 2 6 5
5 6 10 9
9 10 14 13
2 3 7 6
6 7 11 10
10 11 15 14

        </DataArray>
        <DataArray type="Int32" Name="offsets" format="ascii">
4 8 12 16 20 24 28 32 36 
        </DataArray>
        <DataArray type="UInt8" Name="types" format="ascii">
9 9 9 9 9 9 9 9 9 
        </DataArray>
      </Cells>
      <PointData>
        <DataArray type="Float64" Name="u">
          0.00000000e+00 -6.88186396e+00 -1.16377265e+01 -1.85916124e+01 0.00000000e+00 -5.38856637e+00 -9.23659352e+00 -1.56171203e+01 0.00000000e+00 -3.10941590e+00 -5.18878775e+00 -9.32701367e+00 0.00000000e+00 0.00000000e+00 0.00000000e+00 0.00000000e+00 
        </DataArray>
        <DataArray type="Float64" Name="v">
          0.00000000e+00 -5.84650547e+00 -5.44513923e+00 -3.49467164e+00 0.00000000e+00 -2.67723586e+00 -2.66497579e+00 -1.73681632e+00 0.00000000e+00 -9.08554603e-01 -9.72337943e-01 -6.53588281e-01 0.00000000e+00 0.00000000e+00 0.00000000e+00 0.00000000e+00 
        </DataArray>
        <DataArray type="Float64" Name="p">
          -5.12393406e+03 -5.06854392e+03 -5.01315378e+03 -4.95776364e+03 -5.13822047e+03 -5.08277420e+03 -5.02732792e+03 -4.97188165e+03 -5.15250687e+03 -5.09700447e+03 -5.04150207e+03 -4.98599967e+03 -5.16679328e+03 -5.11123474e+03 -5.05567621e+03 -5.00011768e+03 
        </DataArray>
      </PointData>
    </Piece>
    <Piece NumberOfPoints="16" NumberOfCells="9">
      <Points>
        <DataArray type="Float64" NumberOfComponents="3" format="ascii">
          5.00000000e+00 0.00000000e+00 0.00000000e+00 
5.83333349e+00 0.00000000e+00 0.00000000e+00 
6.66666651e+00 0.00000000e+00 0.00000000e+00 
7.50000000e+00 0.00000000e+00 0.00000000e+00 
5.00000000e+00 3.33333343e-01 0.00000000e+00 
5.83333349e+00 3.33333343e-01 0.00000000e+00 
6.66666651e+00 3.33333343e-01 0.00000000e+00 
7.50000000e+00 3.33333343e-01 0.00000000e+00 
5.00000000e+00 6.66666687e-01 0.00000000e+00 
5.83333349e+00 6.66666687e-01 0.00000000e+00 
6.66666651e+00 6.66666687e-01 0.00000000e+00 
7.50000000e+00 6.66666687e-01 0.00000000e+00 
5.00000000e+00 1.00000000e+00 0.00000000e+00 
5.83333349e+00 1.00000000e+00 0.00000000e+00 
6.66666651e+00 1.00000000e+00 0.00000000e+00 
7.50000000e+00 1.00000000e+00 0.00000000e+00 

        </DataArray>
      </Points>
      <Cells>
        <DataArray type="Int32" Name="connectivity" format="ascii">
0 1 5 4
4 5 9 8
8 9 13 12
1 2 6 5
5 6 10 9
9 10 14 13
2 3 7 6
6 7 11 10
10 11 15 14

        </DataArray>
        <DataArray type="Int32" Name="offsets" format="ascii">
4 8 12 16 20 24 28 32 36 
        </DataArray>
        <DataArray type="UInt8" Name="types" format="ascii">
9 9 9 9 9 9 9 9 9 
        </DataArray>
      </Cells>
      <PointData>
        <DataArray type="Float64" Name="u">