<?xml version="1.0"?>
<VTKFile type="UnstructuredGrid" version="0.1" byte_order="LittleEndian">
  <UnstructuredGrid>
    <Piece NumberOfPoints="16" NumberOfCells="9">
      <Points>
        <DataArray type="Float64" NumberOfComponents="3" format="ascii">
          0.00000000e+00 3.00000000e+00 0.00000000e+00 
8.33333313e-01 3.00000000e+00 0.00000000e+00 
1.66666663e+00 3.00000000e+00 0.00000000e+00 
2.50000000e+00 3.00000000e+00 0.00000000e+00 
0.00000000e+00 3.33333325e+00 0.00000000e+00 
8.33333313e-01 3.33333325e+00 0.00000000e+00 
1.66666663e+00 3.33333325e+00 0.00000000e+00 
2.50000000e+00 3.33333325e+00 0.00000000e+00 
0.00000000e+00 3.66666675e+00 0.00000000e+00 
8.33333313e-01 3.66666675e+00 0.00000000e+00 
1.66666663e+00 3.66666675e+00 0.00000000e+00 
2.50000000e+00 3.66666675e+00 0.00000000e+00 
0.00000000e+00 4.00000000e+00 0.00000000e+00 
8.33333313e-01 4.00000000e+00 0.00000000e+00 
1.66666663e+00 4.00000000e+00 0.00000000e+00 
2.50000000e+00 4.00000000e+00 0.00000000e+00 

        </DataArray>
      </Points>
      <Cells>
        <DataArray type="Int32" Name="connectivity" format="ascii">
0 1 5 4
4 5 9 8
8 9 13 12
1 2 6 5
5 6 10 9
9 10 14 13
2 3 7 6
6 7 11 10
10 11 15 14

        </DataArray>
        <DataArray type="Int32" Name="offsets" format="ascii">
4 8 12 16 20 24 28 32 36 
        </DataArray>
        <DataArray type="UInt8" Name="types" format="ascii">
9 9 9 9 9 9 9 9 9 
        </DataArray>
      </Cells>
      <PointData>
        <DataArray type="Float64" Name="u">
          0.00000000e+00 0.00000000e+00 0.00000000e+00 0.00000000e+00 8.88888889e+01 9.23452156e+01 9.15414311e+01 1.00541691e+02 1.55555556e+02 1.58062800e+02 1.58418577e+02 1.63645265e+02 2.00000000e+02 2.00901946e+02 2.01928449e+02 2.04361022e+02 
        </DataArray>
        <DataArray type="Float64" Name="v">
          0.00000000e+00 0.00000000e+00 0.00000000e+00 0.00000000e+00 0.00000000e+00 -1.20500275e+00 -1.74362644e+00 -4.23206422e+00 0.00000000e+00 -9.98155585e-01 -2.29823767e+00 -4.18321626e+00 0.00000000e+00 -2.28789421e+00 -4.01209822e+00 -6.53544527e+00 
        </DataArray>
        <DataArray type="Float64" Name="p">
          -3.01266012e+03 -4.11800268e+03 -5.22334524e+03 -6.32868779e+03 -2.98340783e+03 -4.06771787e+03 -5.15202791e+03 -6.23633795e+03 -2.95415555e+03 -4.01743307e+03 -5.08071058e+03 -6.14398810e+03 -2.92490326e+03 -3.96714826e+03 -5.00939326e+03 -6.05163826e+03 
        </DataArray>
      </PointData>
    </Piece>
    <Piece NumberOfPoints="16" NumberOfCells="9">
      <Points>
        <DataArray type="Float64" NumberOfComponents="3" format="ascii">
          0.00000000e+00 4.00000000e+00 0.00000000e+00 
8.33333313e-01 4.00000000e+00 0.00000000e+00 
1.66666663e+00 4.00000000e+00 0.00000000e+00 
2.50000000e+00 4.00000000e+00 0.00000000e+00 
0.00000000e+00 4.33333349e+00 0.00000000e+00 
8.33333313e-01 4.33333349e+00 0.00000000e+00 
1.66666663e+00 4.33333349e+00 0.00000000e+00 
2.50000000e+00 4.33333349e+00 0.00000000e+00 
0.00000000e+00 4.66666651e+00 0.00000000e+00 
8.33333313e-01 4.66666651e+00 0.00000000e+00 
1.66666663e+00 4.66666651e+00 0.00000000e+00 
2.50000000e+00 4.66666651e+00 0.00000000e+00 
0.00000000e+00 5.00000000e+00 0.00000000e+00 
8.33333313e-01 5.00000000e+00 0.00000000e+00 
1.66666663e+00 5.00000000e+00 0.00000000e+00 
2.50000000e+00 5.00000000e+00 0.00000000e+00 

        </DataArray>
      </Points>
      <Cells>
        <DataArray type="Int32" Name="connectivity" format="ascii">
0 1 5 4
4 5 9 8
8 9 13 12
1 2 6 5
5 6 10 9
9 10 14 13
2 3 7 6
6 7 11 10
10 11 15 14

        </DataArray>
        <DataArray type="Int32" Name="offsets" format="ascii">
4 8 12 16 20 24 28 32 36 
        </DataArray>
        <DataArray type="UInt8" Name="types" format="ascii">
9 9 9 9 9 9 9 9 9 
        </DataArray>
      </Cells>
      <PointData>
        <DataArray type="Float64" Name="u">
          2.00000000e+02 2.00901946e+02 2.01928449e+02 2.04361022e+02 2.22222222e+02 2.21897357e+02 2.22753934e+02 2.22718754e+02 2.22222222e+02 2.20685753e+02 2.21415259e+02 2.19025234e+02 2.00000000e+02 1.97545436e+02 1.98383210e+02 1.93697512e+02 
        </DataArray>
        <DataArray type="Float64" Name="v">
          0.00000000e+00 -2.28789421e+00 -4.01209822e+00 -6.53544527e+00 0.00000000e+00 -2.42289321e+00 -4.59373268e+00 -6.44518361e+00 0.00000000e+00 -2.42942195e+00 -4.42480906e+00 -6.51235373e+00 0.00000000e+00 -1.76691753e+00 -3.65120891e+00 -5.16390941e+00 
        </DataArray>
        <DataArray type="Float64" Name="p">
          -2.88600581e+03 -3.92660693e+03 -4.96720805e+03 -6.00780917e+03 -2.67056157e+03 -3.72465903e+03 -4.77875648e+03 -5.83285394e+03 -2.45511733e+03 -3.52271113e+03 -4.59030492e+03 -5.65789871e+03 -2.23967309e+03 -3.32076322e+03 -4.40185335e+03 -5.48294348e+03 
        </DataArray>
      </PointData>
    </Piece>
    <Piece NumberOfPoints="16" NumberOfCells="9">
      <Points>
        <DataArray type="Float64" NumberOfComponents="3" format="ascii">
          0.00000000e+00 5.00000000e+00 0.00000000e+00 
8.33333313e-01 5.00000000e+00 0.00000000e+00 
1.66666663e+00 5.00000000e+00 0.00000000e+00 
2.50000000e+00 5.00000000e+00 0.00000000e+00 
0.00000000e+00 5.33333349e+00 0.00000000e+00 
8.33333313e-01 5.33333349e+00 0.00000000e+00 
1.66666663e+00 5.33333349e+00 0.00000000e+00 
2.50000000e+00 5.33333349e+00 0.00000000e+00 
0.00000000e+00 5.66666651e+00 0.00000000e+00 
8.33333313e-01 5.66666651e+00 0.00000000e+00 
1.66666663e+00 5.66666651e+00 0.00000000e+00 
2.50000000e+00 5.66666651e+00 0.00000000e+00 
0.00000000e+00 6.00000000e+00 0.00000000e+00 
8.33333313e-01 6.00000000e+00 0.00000000e+00 
1.66666663e+00 6.00000000e+00 0.00000000e+00 
2.50000000e+00 6.00000000e+00 0.00000000e+00 

        </DataArray>
      </Points>
      <Cells>
        <DataArray type="Int32" Name="connectivity" format="ascii">
0 1 5 4
4 5 9 8
8 9 13 12
1 2 6 5
5 6 10 9
9 10 14 13
2 3 7 6
6 7 11 10
10 11 15 14

        </DataArray>
        <DataArray type="Int32" Name="offsets" format="ascii">
4 8 12 16 20 24 28 32 36 
        </DataArray>
        <DataArray type="UInt8" Name="types" format="ascii">
9 9 9 9 9 9 9 9 9 
        </DataArray>
      </Cells>
      <PointData>
        <DataArray type="Float64" Name="u">
          2.00000000e+02 1.97545436e+02 1.98383210e+02 1.93697512e+02 1.55555556e+02 1.52875685e+02 1.53665796e+02 1.47754995e+02 8.88888889e+01 8.66981749e+01 8.71339896e+01 8.09417050e+01 0.00000000e+00 0.00000000e+00 0.00000000e+00 0.00000000e+00 
        </DataArray>
        <DataArray type="Float64" Name="v">
          0.00000000e+00 -1.76691753e+00 -3.65120891e+00 -5.16390941e+00 0.00000000e+00 -6.68751078e-01 -1.81455233e+00 -3.01470550e+00 0.00000000e+00 -7.14794353e-01 -1.65833005e+00 -1.51008484e+00 0.00000000e+00 0.00000000e+00 0.00000000e+00 0.00000000e+00 
        </DataArray>
        <DataArray type="Float64" Name="p">
          -2.23759912e+03 -3.29923091e+03 -4.36086270e+03 -5.42249449e+03 -2.19994830e+03 -3.25623910e+03 -4.31252990e+03 -5.36882070e+03 -2.16229748e+03 -3.21324730e+03 -4.26419711e+03 -5.31514692e+03 -2.12464666e+03 -3.17025549e+03 -4.21586431e+03 -5.26147314e+03 
        </DataArray>
      </PointData>
    </Piece>
    <Piece NumberOfPoints="16" NumberOfCells="9">
      <Points>
        <DataArray type="Float64" NumberOfComponents="3" format="ascii">
          2.50000000e+00 0.00000000e+00 0.00000000e+00 
3.33333325e+00 0.00000000e+00 0.00000000e+00 
4.16666651e+00 0.00000000e+00 0.00000000e+00 
5.00000000e+00 0.00000000e+00 0.00000000e+00 
2.50000000e+00 3.33333343e-01 0.00000000e+00 
3.33333325e+00 3.33333343e-01 0.00000000e+00 
4.16666651e+00 3.33333343e-01 0.00000000e+00 
5.00000000e+00 3.33333343e-01 0.00000000e+00 
2.50000000e+00 6.66666687e-01 0.00000000e+00 
3.33333325e+00 6.66666687e-01 0.00000000e+00 
4.16666651e+00 6.66666687e-01 0.00000000e+00 
5.00000000e+00 6.66666687e-01 0.00000000e+00 
2.50000000e+00 1.00000000e+00 0.00000000e+00 
3.33333325e+00 1.00000000e+00 0.00000000e+00 
4.16666651e+00 1.00000000e+00 0.00000000e+00 
5.00000000e+00 1.00000000e+00 0.00000000e+00 

        </DataArray>
      </Points>
      <Cells>
        <DataArray type="Int32" Name="connectivity" format="ascii">
0 1 5 4
4 5 9 8
8 9 13 12
1 2 6 5
5 6 10 9
9 10 14 13
2 3 7 6
6 7 11 10
10 11 15 14

        </DataArray>
        <DataArray type="Int32" Name="offsets" format="ascii">
4 8 12 16 20 24 28 32 36 
        </DataArray>
        <DataArray type="UInt8" Name="types" format="ascii">
9 9 9 9 9 9 9 9 9 
        </DataArray>
      </Cells>
      <PointData>
        <DataArray type="Float64" Name="u">
          0.00000000e+00 0.00000000e+00 0.00000000e+00 0.00000000e+00 0.00000000e+00 -3.02017450e+00 -5.38943094e+00 -9.78519640e+00 0.00000000e+00 -5.32234339e+00 -9.68891067e+00 -1.68203629e+01 0.00000000e+00 -6.80520005e+00 -1.22020854e+01 -1.98398993e+01 
        </DataArray>
        <DataArray type="Float64" Name="v">
          0.00000000e+00 0.00000000e+00 0.00000000e+00 0.00000000e+00 0.00000000e+00 9.21100350e-01 9.92745439e-01 8.81634396e-01 0.00000000e+00 2.70725146e+00 2.79827150e+00 2.20952535e+00 0.00000000e+00 5.93648916e+00 5.92656343e+00 4.27347319e+00 
        </DataArray>
        <DataArray type="Float64" Name="p">
          -6.45600362e+03 -6.42360687e+03 -6.39121012e+03 -6.35881337e+03 -6.44678200e+03 -6.41292299e+03 -6.37906399e+03 -6.34520498e+03 -6.43756038e+03 -6.40223912e+03 -6.36691785e+03 -6.33159658e+03 -6.42833876e+03 -6.39155524e+03 -6.35477171e+03 -6.31798819e+03 
        </DataArray>
      </PointData>
    </Piece>
    <Piece NumberOfPoints="16" NumberOfCells="9">
      <Points>
        <DataArray type="Float64" NumberOfComponents="3" format="ascii">
          2.50000000e+00 1.00000000e+00 0.00000000e+00 
3.33333325e+00 1.00000000e+00 0.00000000e+00 
4.16666651e+00 1.00000000e+00 0.00000000e+00 
5.00000000e+00 1.00000000e+00 0.00000000e+00 
2.50000000e+00 1.33333337e+00 0.00000000e+00 
3.33333325e+00 1.33333337e+00 0.00000000e+00 
4.16666651e+00 1.33333337e+00 0.00000000e+00 
5.00000000e+00 1.33333337e+00 0.00000000e+00 
2.50000000e+00 1.66666663e+00 0.00000000e+00 
3.33333325e+00 1.66666663e+00 0.00000000e+00 
4.16666651e+00 1.66666663e+00 0.00000000e+00 
5.00000000e+00 1.66666663e+00 0.00000000e+00 
2.50000000e+00 2.00000000e+00 0.00000000e+00 
3.33333325e+00 2.00000000e+00 0.00000000e+00 
4.16666651e+00 2.00000000e+00 0.00000000e+00 
5.00000000e+00 2.00000000e+00 0.00000000e+00 

        </DataArray>
      </Points>
      <Cells>
        <DataArray type="Int32" Name="connectivity" format="ascii">
0 1 5 4
4 5 9 8
8 9 13 12
1 2 6 5
5 6 10 9
9 10 14 13
2 3 7 6
6 7 11 10
10 11 15 14

        </DataArray>
        <DataArray type="Int32" Name="offsets" format="ascii">
4 8 12 16 20 24 28 32 36 
        </DataArray>
        <DataArray type="UInt8" Name="types" format="ascii">
9 9 9 9 9 9 9 9 9 
        </DataArray>
      </Cells>
      <PointData>
        <DataArray type="Float64" Name="u">
          0.00000000e+00 -6.80520005e+00 -1.22020854e+01 -1.98398993e+01 0.00000000e+00 -7.38142941e+00 -1.23535738e+01 -1.85036364e+01 0.00000000e+00 -6.87399556e+00 -9.72828989e+00 -1.22386619e+01 0.00000000e+00 -4.80882500e+00 -3.64627226e+00 -3.63750880e-01 
        </DataArray>
        <DataArray type="Float64" Name="v">
          0.00000000e+00 5.93648916e+00 5.92656343e+00 4.27347319e+00 0.00000000e+00 9.76526306e+00 9.00472363e+00 5.63869814e+00 0.00000000e+00 1.26276683e+01 1.09398920e+01 5.67785427e+00 0.00000000e+00 1.54169922e+01 1.16033768e+01 3.77374189e+00 
        </DataArray>
        <DataArray type="Float64" Name="p">
          -6.41630096e+03 -6.38823120e+03 -6.36016144e+03 -6.33209168e+03 -6.48411664e+03 -6.45423970e+03 -6.42436275e+03 -6.39448581e+03 -6.55193233e+03 -6.52024820e+03 -6.48856407e+03 -6.45687994e+03 -6.61974801e+03 -6.58625669e+03 -6.55276538e+03 -6.51927406e+03 
        </DataArray>
      </PointData>
    </Piece>
    <Piece NumberOfPoints="16" NumberOfCells="9">
      <Points>
        <DataArray type="Float64" NumberOfComponents="3" format="ascii">
          2.50000000e+00 2.00000000e+00 0.00000000e+00 
3.33333325e+00 2.00000000e+00 0.00000000e+00 
4.16666651e+00 2.00000000e+00 0.00000000e+00 
5.00000000e+00 2.00000000e+00 0.00000000e+00 
2.50000000e+00 2.33333325e+00 0.00000000e+00 
3.33333325e+00 2.33333325e+00 0.00000000e+00 
4.16666651e+00 2.33333325e+00 0.00000000e+00 
5.00000000e+00 2.33333325e+00 0.00000000e+00 
2.50000000e+00 2.66666675e+00 0.00000000e+00 
3.33333325e+00 2.66666675e+00 0.00000000e+00 
4.16666651e+00 2.66666675e+00 0.00000000e+00 
5.00000000e+00 2.66666675e+00 0.00000000e+00 
2.50000000e+00 3.00000000e+00 0.00000000e+00 
3.33333325e+00 3.00000000e+00 0.00000000e+00 
4.16666651e+00 3.00000000e+00 0.00000000e+00 
5.00000000e+00 3.00000000e+00 0.00000000e+00 

        </DataArray>
      </Points>
      <Cells>
        <DataArray type="Int32" Name="connectivity" format="ascii">
0 1 5 4
4 5 9 8
8 9 13 12
1 2 6 5
5 6 10 9
9 10 14 13
2 3 7 6
6 7 11 10
10 11 15 14

        </DataArray>
        <DataArray type="Int32" Name="offsets" format="ascii">
4 8 12 16 20 24 28 32 36 
        </DataArray>
        <DataArray type="UInt8" Name="types" format="ascii">
9 9 9 9 9 9 9 9 9 
        </DataArray>
      </Cells>
      <PointData>
        <DataArray type="Float64" Name="u">
          0.00000000e+00 -4.80882500e+00 -3.64627226e+00 -3.63750880e-01 0.00000000e+00 -3.19765045e-02 6.44327527e+00 1.98363348e+01 0.00000000e+00 1.39898040e+01 2.63167548e+01 4.83839477e+01 0.00000000e+00 5.29917160e+01 6.48396576e+01 8.86977923e+01 
        </DataArray>
        <DataArray type="Float64" Name="v">
          0.00000000e+00 1.54169922e+01 1.16033768e+01 3.77374189e+00 0.00000000e+00 1.65547603e+01 8.24931931e+00 -1.66815723e+00 0.00000000e+00 1.22693048e+01 3.82075859e+00 -6.30386189e+00 0.00000000e+00 -1.04214278e+00 -6.06941174e+00 -1.10284430e+01 
        </DataArray>
        <DataArray type="Float64" Name="p">
          -6.57885797e+03 -6.59683441e+03 -6.61481084e+03 -6.63278728e+03 -6.85451034e+03 -6.72089421e+03 -6.58727807e+03 -6.45366194e+03 -7.13016271e+03 -6.84495401e+03 -6.55974531e+03 -6.27453661e+03 -7.40581509e+03 -6.96901381e+03 -6.53221254e+03 -6.09541127e+03 
        </DataArray>
      </PointData>
    </Piece>
    <Piece NumberOfPoints="16" NumberOfCells="9">
      <Points>
        <DataArray type="Float64" NumberOfComponents="3" format="ascii">
          2.50000000e+00 3.00000000e+00 0.00000000e+00 
3.33333325e+00 3.00000000e+00 0.00000000e+00 
4.16666651e+00 3.00000000e+00 0.00000000e+00 
5.00000000e+00 3.00000000e+00 0.00000000e+00 
2.50000000e+00 3.33333325e+00 0.00000000e+00 
3.33333325e+00 3.33333325e+00 0.00000000e+00 
4.16666651e+00 3.33333325e+00 0.00000000e+00 
5.00000000e+00 3.33333325e+00 0.00000000e+00 
2.50000000e+00 3.66666675e+00 0.00000000e+00 
3.33333325e+00 3.66666675e+00 0.00000000e+00 
4.16666651e+00 3.66666675e+00 0.00000000e+00 
5.00000000e+00 3.66666675e+00 0.00000000e+00 
2.50000000e+00 4.00000000e+00 0.00000000e+00 
3.33333325e+00 4.00000000e+00 0.00000000e+00 
4.16666651e+00 4.00000000e+00 0.00000000e+00 
5.00000000e+00 4.00000000e+00 0.00000000e+00 

        </DataArray>
      </Points>
      <Cells>
        <DataArray type="Int32" Name="connectivity" format="ascii">
0 1 5 4
4 5 9 8
8 9 13 12
1 2 6 5
5 6 10 9
9 10 14 13
2 3 7 6
6 7 11 10
10 11 15 14

        </DataArray>
        <DataArray type="Int32" Name="offsets" format="ascii">
4 8 12 16 20 24 28 32 36 
        </DataArray>
        <DataArray type="UInt8" Name="types" format="ascii">
9 9 9 9 9 9 9 9 9 
        </DataArray>
      </Cells>
      <PointData>
        <DataArray type="Float64" Name="u">
          0.00000000e+00 5.29917160e+01 6.48396576e+01 8.86977923e+01 1.00541691e+02 1.08204601e+02 1.19520886e+02 1.31267948e+02 1.63645265e+02 1.63390227e+02 1.69331544e+02 1.72323328e+02 2.04361022e+02 1.99867707e+02 2.03198165e+02 1.99187900e+02 
        </DataArray>
        <DataArray type="Float64" Name="v">
          0.00000000e+00 -1.04214278e+00 -6.06941174e+00 -1.10284430e+01 -4.23206422e+00 -1.25186160e+01 -1.41545305e+01 -1.37364864e+01 -4.18321626e+00 -1.26242840e+01 -1.58016661e+01 -1.58524325e+01 -6.53544527e+00 -1.29150466e+01 -1.63112098e+01 -1.88439441e+01 
        </DataArray>
        <DataArray type="Float64" Name="p">
          -7.55494636e+03 -7.02666464e+03 -6.49838292e+03 -5.97010119e+03 -6.93697091e+03 -6.66096606e+03 -6.38496121e+03 -6.10895635e+03 -6.31899547e+03 -6.29526748e+03 -6.27153949e+03 -6.24781151e+03 -5.70102002e+03 -5.92956890e+03 -6.15811778e+03 -6.38666667e+03 
        </DataArray>
      </PointData>
    </Piece>
    <Piece NumberOfPoints="16" NumberOfCells="9">
      <Points>
        <DataArray type="Float64" NumberOfComponents="3" format="ascii">
          2.50000000e+00 4.00000000e+00 0.00000000e+00 
3.33333325e+00 4.00000000e+00 0.00000000e+00 
4.16666651e+00 4.00000000e+00 0.00000000e+00 
5.00000000e+00 4.00000000e+00 0.00000000e+00 
2.50000000e+00 4.33333349e+00 0.00000000e+00 
3.33333325e+00 4.33333349e+00 0.00000000e+00 
4.16666651e+00 4.33333349e+00 0.00000000e+00 
5.00000000e+00 4.33333349e+00 0.00000000e+00 
2.50000000e+00 4.66666651e+00 0.00000000e+00 
3.33333325e+00 4.66666651e+00 0.00000000e+00 
4.16666651e+00 4.66666651e+00 0.00000000e+00 
5.00000000e+00 4.66666651e+00 0.00000000e+00 
2.50000000e+00 5.00000000e+00 0.00000000e+00 
3.33333325e+00 5.00000000e+00 0.00000000e+00 
4.16666651e+00 5.00000000e+00 0.00000000e+00 
5.00000000e+00 5.00000000e+00 0.00000000e+00 

        </DataArray>
      </Points>
      <Cells>
        <DataArray type="Int32" Name="connectivity" format="ascii">
0 1 5 4
4 5 9 8
8 9 13 12
1 2 6 5
5 6 10 9
9 10 14 13
2 3 7 6
6 7 11 10
10 11 15 14

        </DataArray>
        <DataArray type="Int32" Name="offsets" format="ascii">
4 8 12 16 20 24 28 32 36 
        </DataArray>
        <DataArray type="UInt8" Name="types" format="ascii">
9 9 9 9 9 9 9 9 9 
        </DataArray>
      </Cells>
      <PointData>
        <DataArray type="Float64" Name="u">
          2.04361022e+02 1.99867707e+02 2.03198165e+02 1.99187900e+02 2.22718754e+02 2.16441448e+02 2.15449051e+02 2.08090247e+02 2.19025234e+02 2.11069191e+02 2.07159790e+02 1.96695595e+02 1.93697512e+02 1.85201512e+02 1.79453509e+02 1.67589699e+02 
        </DataArray>
        <DataArray type="Float64" Name="v">
          -6.53544527e+00 -1.29150466e+01 -1.63112098e+01 -1.88439441e+01 -6.44518361e+00 -1.00192074e+01 -1.42491321e+01 -1.82587686e+01 -6.51235373e+00 -9.38222741e+00 -1.22415082e+01 -1.59425130e+01 -5.16390941e+00 -4.84670872e+00 -8.01656173e+00 -1.24422877e+01 
        </DataArray>
        <DataArray type="Float64" Name="p">
          -5.53404525e+03 -5.80385767e+03 -6.07367009e+03 -6.34348252e+03 -5.25561088e+03 -5.48674250e+03 -5.71787412e+03 -5.94900574e+03 -4.97717652e+03 -5.16962733e+03 -5.36207815e+03 -5.55452897e+03 -4.69874215e+03 -4.85251217e+03 -5.00628218e+03 -5.16005219e+03 
        </DataArray>
      </PointData>
    </Piece>
    <Piece NumberOfPoints="16" NumberOfCells="9">
      <Points>
        <DataArray type="Float64" NumberOfComponents="3" format="ascii">
          2.50000000e+00 5.00000000e+00 0.00000000e+00 
3.33333325e+00 5.00000000e+00 0.00000000e+00 
4.16666651e+00 5.00000000e+00 0.00000000e+00 
5.00000000e+00 5.00000000e+00 0.00000000e+00 
2.50000000e+00 5.33333349e+00 0.00000000e+00 
3.33333325e+00 5.33333349e+00 0.00000000e+00 
4.16666651e+00 5.33333349e+00 0.00000000e+00 
5.00000000e+00 5.33333349e+00 0.00000000e+00 
2.50000000e+00 5.66666651e+00 0.00000000e+00 
3.33333325e+00 5.66666651e+00 0.00000000e+00 
4.16666651e+00 5.66666651e+00 0.00000000e+00 
5.00000000e+00 5.66666651e+00 0.00000000e+00 
2.50000000e+00 6.00000000e+00 0.00000000e+00 
3.33333325e+00 6.00000000e+00 0.00000000e+00 
4.16666651e+00 6.00000000e+00 0.00000000e+00 
5.00000000e+00 6.00000000e+00 0.00000000e+00 

        </DataArray>
      </Points>
      <Cells>
        <DataArray type="Int32" Name="connectivity" format="ascii">
0 1 5 4
4 5 9 8
8 9 13 12
1 2 6 5
5 6 10 9
9 10 14 13
2 3 7 6
6 7 11 10
10 11 15 14

        </DataArray>
        <DataArray type="Int32" Name="offsets" format="ascii">
4 8 12 16 20 24 28 32 36 
        </DataArray>
        <DataArray type="UInt8" Name="types" format="ascii">
9 9 9 9 9 9 9 9 9 
        </DataArray>
      </Cells>
      <PointData>
        <DataArray type="Float64" Name="u">
          1.93697512e+02 1.85201512e+02 1.79453509e+02 1.67589699e+02 1.47754995e+02 1.39954792e+02 1.33864868e+02 1.24790999e+02 8.09417050e+01 8.23385478e+01 8.02660989e+01 7.93203566e+01 0.00000000e+00 3.54774234e+01 3.56277608e+01 4.57622241e+01 
        </DataArray>
        <DataArray type="Float64" Name="v">
          -5.16390941e+00 -4.84670872e+00 -8.01656173e+00 -1.24422877e+01 -3.01470550e+00 -6.28248486e-01 -2.83405145e+00 -7.95828357e+00 -1.51008484e+00 -4.26189904e-01 -3.72605263e+00 -6.82655649e+00 0.00000000e+00 -6.09282579e+00 -4.48484610e+00 -2.82234474e+00 
        </DataArray>
        <DataArray type="Float64" Name="p">
          -4.79227104e+03 -4.86322242e+03 -4.93417380e+03 -5.00512519e+03 -5.01790215e+03 -4.92802564e+03 -4.83814914e+03 -4.74827264e+03 -5.24353326e+03 -4.99282887e+03 -4.74212448e+03 -4.49142008e+03 -5.46916437e+03 -5.05763209e+03 -4.64609981e+03 -4.23456753e+03 
        </DataArray>
      </PointData>
    </Piece>
    <Piece NumberOfPoints="16" NumberOfCells="9">
      <Points>
        <DataArray type="Float64" NumberOfComponents="3" format="ascii">
          2.50000000e+00 6.00000000e+00 0.00000000e+00 
3.33333325e+00 6.00000000e+00 0.00000000e+00 
4.16666651e+00 6.00000000e+00 0.00000000e+00 
5.00000000e+00 6.00000000e+00 0.00000000e+00 
2.50000000e+00 6.33333349e+00 0.00000000e+00 
3.33333325e+00 6.33333349e+00 0.00000000e+00 
4.16666651e+00 6.33333349e+00 0.00000000e+00 
5.00000000e+00 6.33333349e+00 0.00000000e+00 
2.50000000e+00 6.66666651e+00 0.00000000e+00 
3.33333325e+00 6.66666651e+00 0.00000000e+00 
4.16666651e+00 6.66666651e+00 0.00000000e+00 
5.00000000e+00 6.66666651e+00 0.00000000e+00 
2.50000000e+00 7.00000000e+00 0.00000000e+00 
3.33333325e+00 7.00000000e+00 0.00000000e+00 
4.16666651e+00 7.00000000e+00 0.00000000e+00 
5.00000000e+00 7.00000000e+00 0.00000000e+00 

        </DataArray>
      </Points>
      <Cells>
        <DataArray type="Int32" Name="connectivity" format="ascii">
0 1 5 4
4 5 9 8
8 9 13 12
1 2 6 5
5 6 10 9
9 10 14 13
2 3 7 6
6 7 11 10
10 11 15 14

        </DataArray>
        <DataArray type="Int32" Name="offsets" format="ascii">
4 8 12 16 20 24 28 32 36 
        </DataArray>
        <DataArray type="UInt8" Name="types" format="ascii">
9 9 9 9 9 9 9 9 9 
        </DataArray>
      </Cells>
      <PointData>
        <DataArray type="Float64" Name="u">
          0.00000000e+00 3.54774234e+01 3.56277608e+01 4.57622241e+01 0.00000000e+00 7.19169589e+00 1.06907120e+01 1.86914924e+01 0.00000000e+00 -2.38528332e+00 -1.46132865e+00 1.50106902e+00 0.00000000e+00 -5.36837074e+00 -7.18907985e+00 -9.13744090e+00 
        </DataArray>
        <DataArray type="Float64" Name="v">
          0.00000000e+00 -6.09282579e+00 -4.48484610e+00 -2.82234474e+00 0.00000000e+00 -1.35505986e+01 -8.43870821e+00 -3.06574016e+00 0.00000000e+00 -1.50361591e+01 -9.27377877e+00 -4.00290888e+00 0.00000000e+00 -1.29508029e+01 -9.77637541e+00 -5.25481259e+00 
        </DataArray>
        <DataArray type="Float64" Name="p">
          -5.43524164e+03 -5.11091084e+03 -4.78658004e+03 -4.46224924e+03 -5.21917665e+03 -4.99769972e+03 -4.77622279e+03 -4.55474586e+03 -5.00311165e+03 -4.88448860e+03 -4.76586554e+03 -4.64724248e+03 -4.78704666e+03 -4.77127748e+03 -4.75550829e+03 -4.73973911e+03 
        </DataArray>
      </PointData>
    </Piece>
    <Piece NumberOfPoints="16" NumberOfCells="9">
      <Points>
        <DataArray type="Float64" NumberOfComponents="3" format="ascii">
          2.50000000e+00 7.00000000e+00 0.00000000e+00 
3.33333325e+00 7.00000000e+00 0.00000000e+00 
4.16666651e+00 7.00000000e+00 0.00000000e+00 
5.00000000e+00 7.00000000e+00 0.00000000e+00 
2.50000000e+00 7.33333349e+00 0.00000000e+00 
3.33333325e+00 7.33333349e+00 0.00000000e+00 
4.16666651e+00 7.33333349e+00 0.00000000e+00 
5.00000000e+00 7.33333349e+00 0.00000000e+00 
2.50000000e+00 7.66666651e+00 0.00000000e+00 
3.33333325e+00 7.66666651e+00 0.00000000e+00 
4.16666651e+00 7.66666651e+00 0.00000000e+00 
5.00000000e+00 7.66666651e+00 0.00000000e+00 
2.50000000e+00 8.00000000e+00 0.00000000e+00 
3.33333325e+00 8.00000000e+00 0.00000000e+00 
4.16666651e+00 8.00000000e+00 0.00000000e+00 
5.00000000e+00 8.00000000e+00 0.00000000e+00 

        </DataArray>
      </Points>
      <Cells>
        <DataArray type="Int32" Name="connectivity" format="ascii">
0 1 5 4
4 5 9 8
8 9 13 12
1 2 6 5
5 6 10 9
9 10 14 13
2 3 7 6
6 7 11 10
10 11 15 14

        </DataArray>
        <DataArray type="Int32" Name="offsets" format="ascii">
4 8 12 16 20 24 28 32 36 
        </DataArray>
        <DataArray type="UInt8" Name="types" format="ascii">
9 9 9 9 9 9 9 9 9 
        </DataArray>
      </Cells>
      <PointData>
        <DataArray type="Float64" Name="u">
          0.00000000e+00 -5.36837074e+00 -7.18907985e+00 -9.13744090e+00 0.00000000e+00 -6.24567422e+00 -9.97078010e+00 -1.41784270e+01 0.00000000e+00 -6.01018091e+00 -1.04636627e+01 -1.58060666e+01 0.00000000e+00 -5.12959320e+00 -9.34019102e+00 -1.47609694e+01 
        </DataArray>
        <DataArray type="Float64" Name="v">
          0.00000000e+00 -1.29508029e+01 -9.77637541e+00 -5.25481259e+00 0.00000000e+00 -9.95846964e+00 -8.22545771e+00 -4.98012060e+00 0.00000000e+00 -7.41387999e+00 -6.40271944e+00 -4.11219587e+00 0.00000000e+00 -4.33032127e+00 -4.05512631e+00 -2.73924819e+00 
        </DataArray>
        <DataArray type="Float64" Name="p">
          -4.80783632e+03 -4.76317328e+03 -4.71851023e+03 -4.67384719e+03 -4.75103615e+03 -4.71670752e+03 -4.68237889e+03 -4.64805026e+03 -4.69423599e+03 -4.67024177e+03 -4.64624755e+03 -4.62225333e+03 -4.63743582e+03 -4.62377602e+03 -4.61011621e+03 -4.59645640e+03 
        </DataArray>
      </PointData>
    </Piece>
    <Piece NumberOfPoints="16" NumberOfCells="9">
      <Points>
        <DataArray type="Float64" NumberOfComponents="3" format="ascii">
          2.50000000e+00 8.00000000e+00 0.00000000e+00 
3.33333325e+00 8.00000000e+00 0.00000000e+00 
4.16666651e+00 8.00000000e+00 0.00000000e+00 
5.00000000e+00 8.00000000e+00 0.00000000e+00 
2.50000000e+00 8.33333302e+00 0.00000000e+00 
3.33333325e+00 8.33333302e+00 0.00000000e+00 
4.16666651e+00 8.33333302e+00 0.00000000e+00 
5.00000000e+00 8.33333302e+00 0.00000000e+00 
2.50000000e+00 8.66666698e+00 0.00000000e+00 
3.33333325e+00 8.66666698e+00 0.00000000e+00 
4.16666651e+00 8.66666698e+00 0.00000000e+00 
5.00000000e+00 8.66666698e+00 0.00000000e+00 
2.50000000e+00 9.00000000e+00 0.00000000e+00 
3.33333325e+00 9.00000000e+00 0.00000000e+00 
4.16666651e+00 9.00000000e+00 0.00000000e+00 
5.00000000e+00 9.00000000e+00 0.00000000e+00 

        </DataArray>
      </Points>
      <Cells>
        <DataArray type="Int32" Name="connectivity" format="ascii">
0 1 5 4
4 5 9 8
8 9 13 12
1 2 6 5
5 6 10 9
9 10 14 13
2 3 7 6
6 7 11 10
10 11 15 14

        </DataArray>
        <DataArray type="Int32" Name="offsets" format="ascii">
4 8 12 16 20 24 28 32 36 
        </DataArray>
        <DataArray type="UInt8" Name="types" format="ascii">
9 9 9 9 9 9 9 9 9 
        </DataArray>
      </Cells>
      <PointData>
        <DataArray type="Float64" Name="u">
          0.00000000e+00 -5.12959320e+00 -9.34019102e+00 -1.47609694e+01 0.00000000e+00 -3.82003038e+00 -7.02232714e+00 -1.16495187e+01 0.00000000e+00 -2.10679440e+00 -3.79232234e+00 -6.67648391e+00 0.00000000e+00 0.00000000e+00 0.00000000e+00 0.00000000e+00 
        </DataArray>
        <DataArray type="Float64" Name="v">
          0.00000000e+00 -4.33032127e+00 -4.05512631e+00 -2.73924819e+00 0.00000000e+00 -1.93716143e+00 -1.94840735e+00 -1.30026648e+00 0.00000000e+00 -6.28367984e-01 -6.85099530e-01 -4.50922993e-01 0.00000000e+00 0.00000000e+00 0.00000000e+00 0.00000000e+00 
        </DataArray>
        <DataArray type="Float64" Name="p">
          -4.64917074e+03 -4.63028274e+03 -4.61139474e+03 -4.59250673e+03 -4.65787215e+03 -4.63903459e+03 -4.62019704e+03 -4.60135948e+03 -4.66657355e+03 -4.64778644e+03 -4.62899933e+03 -4.61021222e+03 -4.67527495e+03 -4.65653829e+03 -4.63780163e+03 -4.61906497e+03 
        </DataArray>
      </PointData>
    </Piece>
    <Piece NumberOfPoints="16" NumberOfCells="9">
      <Points>
        <DataArray type="Float64" NumberOfComponents="3" format="ascii">
          5.00000000e+00 0.00000000e+00 0.00000000e+00 
5.83333349e+00 0.00000000e+00 0.00000000e+00 
6.66666651e+00 0.00000000e+00 0.00000000e+00 
7.50000000e+00 0.00000000e+00 0.00000000e+00 
5.00000000e+00 3.33333343e-01 0.00000000e+00 
5.83333349e+00 3.33333343e-01 0.00000000e+00 
6.66666651e+00 3.33333343e-01 0.00000000e+00 
7.50000000e+00 3.33333343e-01 0.00000000e+00 
5.00000000e+00 6.66666687e-01 0.00000000e+00 
5.83333349e+00 6.66666687e-01 0.00000000e+00 
6.66666651e+00 6.66666687e-01 0.00000000e+00 
7.50000000e+00 6.66666687e-01 0.00000000e+00 
5.00000000e+00 1.00000000e+00 0.00000000e+00 
5.83333349e+00 1.00000000e+00 0.00000000e+00 
6.66666651e+00 1.00000000e+00 0.00000000e+00 
7.50000000e+00 1.00000000e+00 0.00000000e+00 

        </DataArray>
      </Points>
      <Cells>
        <DataArray type="Int32" Name="connectivity" format="ascii">
0 1 5 4
4 5 9 8
8 9 13 12
1 2 6 5
5 6 10 9
9 10 14 13
2 3 7 6
6 7 11 10
10 11 15 14

        </DataArray>
        <DataArray type="Int32" Name="offsets" format="ascii">
4 8 12 16 20 24 28 32 36 
        </DataArray>
        <DataArray type="UInt8" Name="types" format="ascii">
9 9 9 9 9 9 9 9 9 
        </DataArray>
      </Cells>
      <PointData>
        <DataArray type="Float64" Name="u">