<?xml version="1.0"?>
<VTKFile type="UnstructuredGrid" version="0.1" byte_order="LittleEndian">
  <UnstructuredGrid>
    <Piece NumberOfPoints="16" NumberOfCells="9">
      <Points>
        <DataArray type="Float64" NumberOfComponents="3" format="ascii">
          0.00000000e+00 3.00000000e+00 0.00000000e+00 
8.33333313e-01 3.00000000e+00 0.00000000e+00 
1.66666663e+00 3.00000000e+00 0.00000000e+00 
2.50000000e+00 3.00000000e+00 0.00000000e+00 
0.00000000e+00 3.33333325e+00 0.00000000e+00 
8.33333313e-01 3.33333325e+00 0.00000000e+00 
1.66666663e+00 3.33333325e+00 0.00000000e+00 
2.50000000e+00 3.33333325e+00 0.00000000e+00 
0.00000000e+00 3.66666675e+00 0.00000000e+00 
8.33333313e-01 3.66666675e+00 0.00000000e+00 
1.66666663e+00 3.66666675e+00 0.00000000e+00 
2.50000000e+00 3.66666675e+00 0.00000000e+00 
0.00000000e+00 4.00000000e+00 0.00000000e+00 
8.33333313e-01 4.00000000e+00 0.00000000e+00 
1.66666663e+00 4.00000000e+00 0.00000000e+00 
2.50000000e+00 4.00000000e+00 0.00000000e+00 

        </DataArray>
      </Points>
      <Cells>
        <DataArray type="Int32" Name="connectivity" format="ascii">
0 1 5 4
4 5 9 8
8 9 13 12
1 2 6 5
5 6 10 9
9 10 14 13
2 3 7 6
6 7 11 10
10 11 15 14

        </DataArray>
        <DataArray type="Int32" Name="offsets" format="ascii">
4 8 12 16 20 24 28 32 36 
        </DataArray>
        <DataArray type="UInt8" Name="types" format="ascii">
9 9 9 9 9 9 9 9 9 
        </DataArray>
      </Cells>
      <PointData>
        <DataArray type="Float64" Name="u">
          0.00000000e+00 0.00000000e+00 0.00000000e+00 0.00000000e+00 8.88888889e+01 9.13800226e+01 9.09585361e+01 9.78445898e+01 1.55555556e+02 1.57236942e+02 1.57924521e+02 1.61577076e+02 2.00000000e+02 2.00258335e+02 2.01618072e+02 2.02688677e+02 
        </DataArray>
        <DataArray type="Float64" Name="v">
          0.00000000e+00 0.00000000e+00 0.00000000e+00 0.00000000e+00 0.00000000e+00 -8.59155788e-01 -1.17530210e+00 -3.67661201e+00 0.00000000e+00 -7.96238941e-01 -1.72862095e+00 -3.45881303e+00 0.00000000e+00 -1.70361774e+00 -2.95250423e+00 -5.07977098e+00 
        </DataArray>
        <DataArray type="Float64" Name="p">
          -2.01119371e+03 -3.36638508e+03 -4.72157645e+03 -6.07676782e+03 -1.99956996e+03 -3.33133957e+03 -4.66310918e+03 -5.99487879e+03 -1.98794621e+03 -3.29629406e+03 -4.60464191e+03 -5.91298976e+03 -1.97632246e+03 -3.26124855e+03 -4.54617463e+03 -5.83110072e+03 
        </DataArray>
      </PointData>
    </Piece>
    <Piece NumberOfPoints="16" NumberOfCells="9">
      <Points>
        <DataArray type="Float64" NumberOfComponents="3" format="ascii">
          0.00000000e+00 4.00000000e+00 0.00000000e+00 
8.33333313e-01 4.00000000e+00 0.00000000e+00 
1.66666663e+00 4.00000000e+00 0.00000000e+00 
2.50000000e+00 4.00000000e+00 0.00000000e+00 
0.00000000e+00 4.33333349e+00 0.00000000e+00 
8.33333313e-01 4.33333349e+00 0.00000000e+00 
1.66666663e+00 4.33333349e+00 0.00000000e+00 
2.50000000e+00 4.33333349e+00 0.00000000e+00 
0.00000000e+00 4.66666651e+00 0.00000000e+00 
8.33333313e-01 4.66666651e+00 0.00000000e+00 
1.66666663e+00 4.66666651e+00 0.00000000e+00 
2.50000000e+00 4.66666651e+00 0.00000000e+00 
0.00000000e+00 5.00000000e+00 0.00000000e+00 
8.33333313e-01 5.00000000e+00 0.00000000e+00 
1.66666663e+00 5.00000000e+00 0.00000000e+00 
2.50000000e+00 5.00000000e+00 0.00000000e+00 

        </DataArray>
      </Points>
      <Cells>
        <DataArray type="Int32" Name="connectivity" format="ascii">
0 1 5 4
4 5 9 8
8 9 13 12
1 2 6 5
5 6 10 9
9 10 14 13
2 3 7 6
6 7 11 10
10 11 15 14

        </DataArray>
        <DataArray type="Int32" Name="offsets" format="ascii">
4 8 12 16 20 24 28 32 36 
        </DataArray>
        <DataArray type="UInt8" Name="types" format="ascii">
9 9 9 9 9 9 9 9 9 
        </DataArray>
      </Cells>
      <PointData>
        <DataArray type="Float64" Name="u">
          2.00000000e+02 2.00258335e+02 2.01618072e+02 2.02688677e+02 2.22222222e+02 2.21475829e+02 2.22648026e+02 2.21979896e+02 2.22222222e+02 2.20600584e+02 2.21662194e+02 2.19258256e+02 2.00000000e+02 1.97820357e+02 1.98986702e+02 1.94915114e+02 
        </DataArray>
        <DataArray type="Float64" Name="v">
          0.00000000e+00 -1.70361774e+00 -2.95250423e+00 -5.07977098e+00 0.00000000e+00 -1.70609583e+00 -3.31299885e+00 -4.70650882e+00 0.00000000e+00 -1.69079606e+00 -3.11013701e+00 -4.77674732e+00 0.00000000e+00 -1.10835355e+00 -2.48792222e+00 -3.45327403e+00 
        </DataArray>
        <DataArray type="Float64" Name="p">
          -1.94018881e+03 -3.22472318e+03 -4.50925754e+03 -5.79379190e+03 -1.79346651e+03 -3.08003872e+03 -4.36661093e+03 -5.65318314e+03 -1.64674421e+03 -2.93535427e+03 -4.22396432e+03 -5.51257438e+03 -1.50002191e+03 -2.79066981e+03 -4.08131771e+03 -5.37196562e+03 
        </DataArray>
      </PointData>
    </Piece>
    <Piece NumberOfPoints="16" NumberOfCells="9">
      <Points>
        <DataArray type="Float64" NumberOfComponents="3" format="ascii">
          0.00000000e+00 5.00000000e+00 0.00000000e+00 
8.33333313e-01 5.00000000e+00 0.00000000e+00 
1.66666663e+00 5.00000000e+00 0.00000000e+00 
2.50000000e+00 5.00000000e+00 0.00000000e+00 
0.00000000e+00 5.33333349e+00 0.00000000e+00 
8.33333313e-01 5.33333349e+00 0.00000000e+00 
1.66666663e+00 5.33333349e+00 0.00000000e+00 
2.50000000e+00 5.33333349e+00 0.00000000e+00 
0.00000000e+00 5.66666651e+00 0.00000000e+00 
8.33333313e-01 5.66666651e+00 0.00000000e+00 
1.66666663e+00 5.66666651e+00 0.00000000e+00 
2.50000000e+00 5.66666651e+00 0.00000000e+00 
0.00000000e+00 6.00000000e+00 0.00000000e+00 
8.33333313e-01 6.00000000e+00 0.00000000e+00 
1.66666663e+00 6.00000000e+00 0.00000000e+00 
2.50000000e+00 6.00000000e+00 0.00000000e+00 

        </DataArray>
      </Points>
      <Cells>
        <DataArray type="Int32" Name="connectivity" format="ascii">
0 1 5 4
4 5 9 8
8 9 13 12
1 2 6 5
5 6 10 9
9 10 14 13
2 3 7 6
6 7 11 10
10 11 15 14

        </DataArray>
        <DataArray type="Int32" Name="offsets" format="ascii">
4 8 12 16 20 24 28 32 36 
        </DataArray>
        <DataArray type="UInt8" Name="types" format="ascii">
9 9 9 9 9 9 9 9 9 
        </DataArray>
      </Cells>
      <PointData>
        <DataArray type="Float64" Name="u">
          2.00000000e+02 1.97820357e+02 1.98986702e+02 1.94915114e+02 1.55555556e+02 1.53569631e+02 1.54494024e+02 1.49995504e+02 8.88888889e+01 8.76291836e+01 8.79648623e+01 8.42754845e+01 0.00000000e+00 0.00000000e+00 0.00000000e+00 0.00000000e+00 
        </DataArray>
        <DataArray type="Float64" Name="v">
          0.00000000e+00 -1.10835355e+00 -2.48792222e+00 -3.45327403e+00 0.00000000e+00 -3.88708471e-01 -1.21836637e+00 -1.82911963e+00 0.00000000e+00 -3.61671389e-01 -1.07382963e+00 -3.87717552e-01 0.00000000e+00 0.00000000e+00 0.00000000e+00 0.00000000e+00 
        </DataArray>
        <DataArray type="Float64" Name="p">
          -1.50669860e+03 -2.78012772e+03 -4.05355684e+03 -5.32698595e+03 -1.47815583e+03 -2.75175128e+03 -4.02534674e+03 -5.29894219e+03 -1.44961306e+03 -2.72337485e+03 -3.99713664e+03 -5.27089844e+03 -1.42107028e+03 -2.69499841e+03 -3.96892654e+03 -5.24285468e+03 
        </DataArray>
      </PointData>
    </Piece>
    <Piece NumberOfPoints="16" NumberOfCells="9">
      <Points>
        <DataArray type="Float64" NumberOfComponents="3" format="ascii">
          2.50000000e+00 0.00000000e+00 0.00000000e+00 
3.33333325e+00 0.00000000e+00 0.00000000e+00 
4.16666651e+00 0.00000000e+00 0.00000000e+00 
5.00000000e+00 0.00000000e+00 0.00000000e+00 
2.50000000e+00 3.33333343e-01 0.00000000e+00 
3.33333325e+00 3.33333343e-01 0.00000000e+00 
4.16666651e+00 3.33333343e-01 0.00000000e+00 
5.00000000e+00 3.33333343e-01 0.00000000e+00 
2.50000000e+00 6.66666687e-01 0.00000000e+00 
3.33333325e+00 6.66666687e-01 0.00000000e+00 
4.16666651e+00 6.66666687e-01 0.00000000e+00 
5.00000000e+00 6.66666687e-01 0.00000000e+00 
2.50000000e+00 1.00000000e+00 0.00000000e+00 
3.33333325e+00 1.00000000e+00 0.00000000e+00 
4.16666651e+00 1.00000000e+00 0.00000000e+00 
5.00000000e+00 1.00000000e+00 0.00000000e+00 

        </DataArray>
      </Points>
      <Cells>
        <DataArray type="Int32" Name="connectivity" format="ascii">
0 1 5 4
4 5 9 8
8 9 13 12
1 2 6 5
5 6 10 9
9 10 14 13
2 3 7 6
6 7 11 10
10 11 15 14

        </DataArray>
        <DataArray type="Int32" Name="offsets" format="ascii">
4 8 12 16 20 24 28 32 36 
        </DataArray>
        <DataArray type="UInt8" Name="types" format="ascii">
9 9 9 9 9 9 9 9 9 
        </DataArray>
      </Cells>
      <PointData>
        <DataArray type="Float64" Name="u">
          0.00000000e+00 0.00000000e+00 0.00000000e+00 0.00000000e+00 0.00000000e+00 -3.34747044e+00 -5.65091409e+00 -1.02839432e+01 0.00000000e+00 -5.77684189e+00 -9.99994829e+00 -1.72188994e+01 0.00000000e+00 -7.28524225e+00 -1.24100981e+01 -2.00345966e+01 
        </DataArray>
        <DataArray type="Float64" Name="v">
          0.00000000e+00 0.00000000e+00 0.00000000e+00 0.00000000e+00 0.00000000e+00 9.91122125e-01 1.07170718e+00 8.22466074e-01 0.00000000e+00 2.88516060e+00 2.93157005e+00 2.06279250e+00 0.00000000e+00 6.27529325e+00 6.05366382e+00 4.03037859e+00 
        </DataArray>
        <DataArray type="Float64" Name="p">
          -5.98254839e+03 -5.92833172e+03 -5.87411504e+03 -5.81989836e+03 -5.96962096e+03 -5.91497300e+03 -5.86032504e+03 -5.80567708e+03 -5.95669354e+03 -5.90161429e+03 -5.84653504e+03 -5.79145579e+03 -5.94376611e+03 -5.88825558e+03 -5.83274504e+03 -5.77723451e+03 
        </DataArray>
      </PointData>
    </Piece>
    <Piece NumberOfPoints="16" NumberOfCells="9">
      <Points>
        <DataArray type="Float64" NumberOfComponents="3" format="ascii">
          2.50000000e+00 1.00000000e+00 0.00000000e+00 
3.33333325e+00 1.00000000e+00 0.00000000e+00 
4.16666651e+00 1.00000000e+00 0.00000000e+00 
5.00000000e+00 1.00000000e+00 0.00000000e+00 
2.50000000e+00 1.33333337e+00 0.00000000e+00 
3.33333325e+00 1.33333337e+00 0.00000000e+00 
4.16666651e+00 1.33333337e+00 0.00000000e+00 
5.00000000e+00 1.33333337e+00 0.00000000e+00 
2.50000000e+00 1.66666663e+00 0.00000000e+00 
3.33333325e+00 1.66666663e+00 0.00000000e+00 
4.16666651e+00 1.66666663e+00 0.00000000e+00 
5.00000000e+00 1.66666663e+00 0.00000000e+00 
2.50000000e+00 2.00000000e+00 0.00000000e+00 
3.33333325e+00 2.00000000e+00 0.00000000e+00 
4.16666651e+00 2.00000000e+00 0.00000000e+00 
5.00000000e+00 2.00000000e+00 0.00000000e+00 

        </DataArray>
      </Points>
      <Cells>
        <DataArray type="Int32" Name="connectivity" format="ascii">
0 1 5 4
4 5 9 8
8 9 13 12
1 2 6 5
5 6 10 9
9 10 14 13
2 3 7 6
6 7 11 10
10 11 15 14

        </DataArray>
        <DataArray type="Int32" Name="offsets" format="ascii">
4 8 12 16 20 24 28 32 36 
        </DataArray>
        <DataArray type="UInt8" Name="types" format="ascii">
9 9 9 9 9 9 9 9 9 
        </DataArray>
      </Cells>
      <PointData>
        <DataArray type="Float64" Name="u">
          0.00000000e+00 -7.28524225e+00 -1.24100981e+01 -2.00345966e+01 0.00000000e+00 -7.84993478e+00 -1.24209041e+01 -1.85336715e+01 0.00000000e+00 -7.26746206e+00 -9.63470287e+00 -1.21739765e+01 0.00000000e+00 -4.99066935e+00 -3.37790001e+00 -3.26942098e-01 
        </DataArray>
        <DataArray type="Float64" Name="v">
          0.00000000e+00 6.27529325e+00 6.05366382e+00 4.03037859e+00 0.00000000e+00 1.02397410e+01 9.07414558e+00 5.26263930e+00 0.00000000e+00 1.31793080e+01 1.09553684e+01 5.23315406e+00 0.00000000e+00 1.60069324e+01 1.15497219e+01 3.34108012e+00 
        </DataArray>
        <DataArray type="Float64" Name="p">
          -5.92921215e+03 -5.88437358e+03 -5.83953501e+03 -5.79469644e+03 -6.01925323e+03 -5.96586081e+03 -5.91246838e+03 -5.85907596e+03 -6.10929430e+03 -6.04734803e+03 -5.98540176e+03 -5.92345549e+03 -6.19933537e+03 -6.12883525e+03 -6.05833513e+03 -5.98783501e+03 
        </DataArray>
      </PointData>
    </Piece>
    <Piece NumberOfPoints="16" NumberOfCells="9">
      <Points>
        <DataArray type="Float64" NumberOfComponents="3" format="ascii">
          2.50000000e+00 2.00000000e+00 0.00000000e+00 
3.33333325e+00 2.00000000e+00 0.00000000e+00 
4.16666651e+00 2.00000000e+00 0.00000000e+00 
5.00000000e+00 2.00000000e+00 0.00000000e+00 
2.50000000e+00 2.33333325e+00 0.00000000e+00 
3.33333325e+00 2.33333325e+00 0.00000000e+00 
4.16666651e+00 2.33333325e+00 0.00000000e+00 
5.00000000e+00 2.33333325e+00 0.00000000e+00 
2.50000000e+00 2.66666675e+00 0.00000000e+00 
3.33333325e+00 2.66666675e+00 0.00000000e+00 
4.16666651e+00 2.66666675e+00 0.00000000e+00 
5.00000000e+00 2.66666675e+00 0.00000000e+00 
2.50000000e+00 3.00000000e+00 0.00000000e+00 
3.33333325e+00 3.00000000e+00 0.00000000e+00 
4.16666651e+00 3.00000000e+00 0.00000000e+00 
5.00000000e+00 3.00000000e+00 0.00000000e+00 

        </DataArray>
      </Points>
      <Cells>
        <DataArray type="Int32" Name="connectivity" format="ascii">
0 1 5 4
4 5 9 8
8 9 13 12
1 2 6 5
5 6 10 9
9 10 14 13
2 3 7 6
6 7 11 10
10 11 15 14

        </DataArray>
        <DataArray type="Int32" Name="offsets" format="ascii">
4 8 12 16 20 24 28 32 36 
        </DataArray>
        <DataArray type="UInt8" Name="types" format="ascii">
9 9 9 9 9 9 9 9 9 
        </DataArray>
      </Cells>
      <PointData>
        <DataArray type="Float64" Name="u">
          0.00000000e+00 -4.99066935e+00 -3.37790001e+00 -3.26942098e-01 0.00000000e+00 2.41548702e-01 6.96737608e+00 1.94380937e+01 0.00000000e+00 1.47217193e+01 2.65698721e+01 4.69289102e+01 0.00000000e+00 5.24135509e+01 6.25355494e+01 8.48131664e+01 
        </DataArray>
        <DataArray type="Float64" Name="v">
          0.00000000e+00 1.60069324e+01 1.15497219e+01 3.34108012e+00 0.00000000e+00 1.70509044e+01 8.35650416e+00 -1.63480281e+00 0.00000000e+00 1.25382850e+01 3.94924444e+00 -5.77239354e+00 0.00000000e+00 -7.50155073e-01 -5.21450924e+00 -9.52985861e+00 
        </DataArray>
        <DataArray type="Float64" Name="p">
          -6.15416808e+03 -6.13975067e+03 -6.12533327e+03 -6.11091586e+03 -6.49283723e+03 -6.29830168e+03 -6.10376614e+03 -5.90923059e+03 -6.83150638e+03 -6.45685269e+03 -6.08219900e+03 -5.70754531e+03 -7.17017554e+03 -6.61540370e+03 -6.06063187e+03 -5.50586004e+03 
        </DataArray>
      </PointData>
    </Piece>
    <Piece NumberOfPoints="16" NumberOfCells="9">
      <Points>
        <DataArray type="Float64" NumberOfComponents="3" format="ascii">
          2.50000000e+00 3.00000000e+00 0.00000000e+00 
3.33333325e+00 3.00000000e+00 0.00000000e+00 
4.16666651e+00 3.00000000e+00 0.00000000e+00 
5.00000000e+00 3.00000000e+00 0.00000000e+00 
2.50000000e+00 3.33333325e+00 0.00000000e+00 
3.33333325e+00 3.33333325e+00 0.00000000e+00 
4.16666651e+00 3.33333325e+00 0.00000000e+00 
5.00000000e+00 3.33333325e+00 0.00000000e+00 
2.50000000e+00 3.66666675e+00 0.00000000e+00 
3.33333325e+00 3.66666675e+00 0.00000000e+00 
4.16666651e+00 3.66666675e+00 0.00000000e+00 
5.00000000e+00 3.66666675e+00 0.00000000e+00 
2.50000000e+00 4.00000000e+00 0.00000000e+00 
3.33333325e+00 4.00000000e+00 0.00000000e+00 
4.16666651e+00 4.00000000e+00 0.00000000e+00 
5.00000000e+00 4.00000000e+00 0.00000000e+00 

        </DataArray>
      </Points>
      <Cells>
        <DataArray type="Int32" Name="connectivity" format="ascii">
0 1 5 4
4 5 9 8
8 9 13 12
1 2 6 5
5 6 10 9
9 10 14 13
2 3 7 6
6 7 11 10
10 11 15 14

        </DataArray>
        <DataArray type="Int32" Name="offsets" format="ascii">
4 8 12 16 20 24 28 32 36 
        </DataArray>
        <DataArray type="UInt8" Name="types" format="ascii">
9 9 9 9 9 9 9 9 9 
        </DataArray>
      </Cells>
      <PointData>
        <DataArray type="Float64" Name="u">
          0.00000000e+00 5.24135509e+01 6.25355494e+01 8.48131664e+01 9.78445898e+01 1.04907337e+02 1.14453516e+02 1.24523571e+02 1.61577076e+02 1.59622017e+02 1.63843228e+02 1.64939929e+02 2.02688677e+02 1.96975680e+02 1.98834324e+02 1.93200059e+02 
        </DataArray>
        <DataArray type="Float64" Name="v">
          0.00000000e+00 -7.50155073e-01 -5.21450924e+00 -9.52985861e+00 -3.67661201e+00 -1.15137332e+01 -1.22219981e+01 -1.10711596e+01 -3.45881303e+00 -1.18934079e+01 -1.41072140e+01 -1.28780381e+01 -5.07977098e+00 -1.10814045e+01 -1.35162217e+01 -1.47312221e+01 
        </DataArray>
        <DataArray type="Float64" Name="p">
          -7.28776893e+03 -6.64058997e+03 -5.99341101e+03 -5.34623205e+03 -6.64700386e+03 -6.28132705e+03 -5.91565025e+03 -5.54997344e+03 -6.00623879e+03 -5.92206414e+03 -5.83788949e+03 -5.75371484e+03 -5.36547372e+03 -5.56280122e+03 -5.76012873e+03 -5.95745623e+03 
        </DataArray>
      </PointData>
    </Piece>
    <Piece NumberOfPoints="16" NumberOfCells="9">
      <Points>
        <DataArray type="Float64" NumberOfComponents="3" format="ascii">
          2.50000000e+00 4.00000000e+00 0.00000000e+00 
3.33333325e+00 4.00000000e+00 0.00000000e+00 
4.16666651e+00 4.00000000e+00 0.00000000e+00 
5.00000000e+00 4.00000000e+00 0.00000000e+00 
2.50000000e+00 4.33333349e+00 0.00000000e+00 
3.33333325e+00 4.33333349e+00 0.00000000e+00 
4.16666651e+00 4.33333349e+00 0.00000000e+00 
5.00000000e+00 4.33333349e+00 0.00000000e+00 
2.50000000e+00 4.66666651e+00 0.00000000e+00 
3.33333325e+00 4.66666651e+00 0.00000000e+00 
4.16666651e+00 4.66666651e+00 0.00000000e+00 
5.00000000e+00 4.66666651e+00 0.00000000e+00 
2.50000000e+00 5.00000000e+00 0.00000000e+00 
3.33333325e+00 5.00000000e+00 0.00000000e+00 
4.16666651e+00 5.00000000e+00 0.00000000e+00 
5.00000000e+00 5.00000000e+00 0.00000000e+00 

        </DataArray>
      </Points>
      <Cells>
        <DataArray type="Int32" Name="connectivity" format="ascii">
0 1 5 4
4 5 9 8
8 9 13 12
1 2 6 5
5 6 10 9
9 10 14 13
2 3 7 6
6 7 11 10
10 11 15 14

        </DataArray>
        <DataArray type="Int32" Name="offsets" format="ascii">
4 8 12 16 20 24 28 32 36 
        </DataArray>
        <DataArray type="UInt8" Name="types" format="ascii">
9 9 9 9 9 9 9 9 9 
        </DataArray>
      </Cells>
      <PointData>
        <DataArray type="Float64" Name="u">
          2.02688677e+02 1.96975680e+02 1.98834324e+02 1.93200059e+02 2.21979896e+02 2.14495392e+02 2.12921159e+02 2.04605789e+02 2.19258256e+02 2.10630628e+02 2.06881573e+02 1.96431690e+02 1.94915114e+02 1.86297006e+02 1.81542234e+02 1.70516173e+02 
        </DataArray>
        <DataArray type="Float64" Name="v">
          -5.07977098e+00 -1.10814045e+01 -1.35162217e+01 -1.47312221e+01 -4.70650882e+00 -7.63168974e+00 -1.10344347e+01 -1.39686098e+01 -4.77674732e+00 -6.63352487e+00 -8.55726698e+00 -1.14552528e+01 -3.45327403e+00 -2.01586123e+00 -4.55956258e+00 -8.62849682e+00 
        </DataArray>
        <DataArray type="Float64" Name="p">
          -5.17525404e+03 -5.43810872e+03 -5.70096339e+03 -5.96381807e+03 -4.96660997e+03 -5.19836143e+03 -5.43011290e+03 -5.66186437e+03 -4.75796589e+03 -4.95861415e+03 -5.15926242e+03 -5.35991068e+03 -4.54932181e+03 -4.71886687e+03 -4.88841193e+03 -5.05795699e+03 
        </DataArray>
      </PointData>
    </Piece>
    <Piece NumberOfPoints="16" NumberOfCells="9">
      <Points>
        <DataArray type="Float64" NumberOfComponents="3" format="ascii">
          2.50000000e+00 5.00000000e+00 0.00000000e+00 
3.33333325e+00 5.00000000e+00 0.00000000e+00 
4.16666651e+00 5.00000000e+00 0.00000000e+00 
5.00000000e+00 5.00000000e+00 0.00000000e+00 
2.50000000e+00 5.33333349e+00 0.00000000e+00 
3.33333325e+00 5.33333349e+00 0.00000000e+00 
4.16666651e+00 5.33333349e+00 0.00000000e+00 
5.00000000e+00 5.33333349e+00 0.00000000e+00 
2.50000000e+00 5.66666651e+00 0.00000000e+00 
3.33333325e+00 5.66666651e+00 0.00000000e+00 
4.16666651e+00 5.66666651e+00 0.00000000e+00 
5.00000000e+00 5.66666651e+00 0.00000000e+00 
2.50000000e+00 6.00000000e+00 0.00000000e+00 
3.33333325e+00 6.00000000e+00 0.00000000e+00 
4.16666651e+00 6.00000000e+00 0.00000000e+00 
5.00000000e+00 6.00000000e+00 0.00000000e+00 

        </DataArray>
      </Points>
      <Cells>
        <DataArray type="Int32" Name="connectivity" format="ascii">
0 1 5 4
4 5 9 8
8 9 13 12
1 2 6 5
5 6 10 9
9 10 14 13
2 3 7 6
6 7 11 10
10 11 15 14

        </DataArray>
        <DataArray type="Int32" Name="offsets" format="ascii">
4 8 12 16 20 24 28 32 36 
        </DataArray>
        <DataArray type="UInt8" Name="types" format="ascii">
9 9 9 9 9 9 9 9 9 
        </DataArray>
      </Cells>
      <PointData>
        <DataArray type="Float64" Name="u">
          1.94915114e+02 1.86297006e+02 1.81542234e+02 1.70516173e+02 1.49995504e+02 1.42927633e+02 1.38422948e+02 1.31241355e+02 8.42754845e+01 8.69573650e+01 8.68312385e+01 8.79865816e+01 0.00000000e+00 3.99168987e+01 4.15374094e+01 5.38292611e+01 
        </DataArray>
        <DataArray type="Float64" Name="v">
          -3.45327403e+00 -2.01586123e+00 -4.55956258e+00 -8.62849682e+00 -1.82911963e+00 1.82071353e+00 -1.50363186e-01 -5.35502195e+00 -3.87717552e-01 1.84880193e+00 -1.21264793e+00 -4.52164887e+00 0.00000000e+00 -4.89360725e+00 -3.14696152e+00 -1.40680169e+00 
        </DataArray>
        <DataArray type="Float64" Name="p">
          -4.67793974e+03 -4.75407148e+03 -4.83020321e+03 -4.90633495e+03 -5.00998259e+03 -4.87956305e+03 -4.74914351e+03 -4.61872397e+03 -5.34202544e+03 -5.00505462e+03 -4.66808380e+03 -4.33111298e+03 -5.67406829e+03 -5.13054619e+03 -4.58702410e+03 -4.04350200e+03 
        </DataArray>
      </PointData>
    </Piece>
    <Piece NumberOfPoints="16" NumberOfCells="9">
      <Points>
        <DataArray type="Float64" NumberOfComponents="3" format="ascii">
          2.50000000e+00 6.00000000e+00 0.00000000e+00 
3.33333325e+00 6.00000000e+00 0.00000000e+00 
4.16666651e+00 6.00000000e+00 0.00000000e+00 
5.00000000e+00 6.00000000e+00 0.00000000e+00 
2.50000000e+00 6.33333349e+00 0.00000000e+00 
3.33333325e+00 6.33333349e+00 0.00000000e+00 
4.16666651e+00 6.33333349e+00 0.00000000e+00 
5.00000000e+00 6.33333349e+00 0.00000000e+00 
2.50000000e+00 6.66666651e+00 0.00000000e+00 
3.33333325e+00 6.66666651e+00 0.00000000e+00 
4.16666651e+00 6.66666651e+00 0.00000000e+00 
5.00000000e+00 6.66666651e+00 0.00000000e+00 
2.50000000e+00 7.00000000e+00 0.00000000e+00 
3.33333325e+00 7.00000000e+00 0.00000000e+00 
4.16666651e+00 7.00000000e+00 0.00000000e+00 
5.00000000e+00 7.00000000e+00 0.00000000e+00 

        </DataArray>
      </Points>
      <Cells>
        <DataArray type="Int32" Name="connectivity" format="ascii">
0 1 5 4
4 5 9 8
8 9 13 12
1 2 6 5
5 6 10 9
9 10 14 13
2 3 7 6
6 7 11 10
10 11 15 14

        </DataArray>
        <DataArray type="Int32" Name="offsets" format="ascii">
4 8 12 16 20 24 28 32 36 
        </DataArray>
        <DataArray type="UInt8" Name="types" format="ascii">
9 9 9 9 9 9 9 9 9 
        </DataArray>
      </Cells>
      <PointData>
        <DataArray type="Float64" Name="u">
          0.00000000e+00 3.99168987e+01 4.15374094e+01 5.38292611e+01 0.00000000e+00 9.45288439e+00 1.45055598e+01 2.45295171e+01 0.00000000e+00 -1.71701260e+00 4.34700417e-01 4.96282956e+00 0.00000000e+00 -5.49490073e+00 -6.57389985e+00 -7.79629011e+00 
        </DataArray>
        <DataArray type="Float64" Name="v">
          0.00000000e+00 -4.89360725e+00 -3.14696152e+00 -1.40680169e+00 0.00000000e+00 -1.38409396e+01 -7.98777831e+00 -1.93847308e+00 0.00000000e+00 -1.61264114e+01 -9.55341225e+00 -3.28338041e+00 0.00000000e+00 -1.42391442e+01 -1.05101861e+01 -5.08452157e+00 
        </DataArray>
        <DataArray type="Float64" Name="p">
          -5.63857413e+03 -5.18613921e+03 -4.73370428e+03 -4.28126936e+03 -5.35164015e+03 -5.03851672e+03 -4.72539330e+03 -4.41226987e+03 -5.06470617e+03 -4.89089424e+03 -4.71708231e+03 -4.54327038e+03 -4.77777218e+03 -4.74327175e+03 -4.70877133e+03 -4.67427090e+03 
        </DataArray>
      </PointData>
    </Piece>
    <Piece NumberOfPoints="16" NumberOfCells="9">
      <Points>
        <DataArray type="Float64" NumberOfComponents="3" format="ascii">
          2.50000000e+00 7.00000000e+00 0.00000000e+00 
3.33333325e+00 7.00000000e+00 0.00000000e+00 
4.16666651e+00 7.00000000e+00 0.00000000e+00 
5.00000000e+00 7.00000000e+00 0.00000000e+00 
2.50000000e+00 7.33333349e+00 0.00000000e+00 
3.33333325e+00 7.33333349e+00 0.00000000e+00 
4.16666651e+00 7.33333349e+00 0.00000000e+00 
5.00000000e+00 7.33333349e+00 0.00000000e+00 
2.50000000e+00 7.66666651e+00 0.00000000e+00 
3.33333325e+00 7.66666651e+00 0.00000000e+00 
4.16666651e+00 7.66666651e+00 0.00000000e+00 
5.00000000e+00 7.66666651e+00 0.00000000e+00 
2.50000000e+00 8.00000000e+00 0.00000000e+00 
3.33333325e+00 8.00000000e+00 0.00000000e+00 
4.16666651e+00 8.00000000e+00 0.00000000e+00 
5.00000000e+00 8.00000000e+00 0.00000000e+00 

        </DataArray>
      </Points>
      <Cells>
        <DataArray type="Int32" Name="connectivity" format="ascii">
0 1 5 4
4 5 9 8
8 9 13 12
1 2 6 5
5 6 10 9
9 10 14 13
2 3 7 6
6 7 11 10
10 11 15 14

        </DataArray>
        <DataArray type="Int32" Name="offsets" format="ascii">
4 8 12 16 20 24 28 32 36 
        </DataArray>
        <DataArray type="UInt8" Name="types" format="ascii">
9 9 9 9 9 9 9 9 9 
        </DataArray>
      </Cells>
      <PointData>
        <DataArray type="Float64" Name="u">
          0.00000000e+00 -5.49490073e+00 -6.57389985e+00 -7.79629011e+00 0.00000000e+00 -6.80063030e+00 -1.02516734e+01 -1.43886105e+01 0.00000000e+00 -6.76196686e+00 -1.12880771e+01 -1.70330518e+01 0.00000000e+00 -5.91655374e+00 -1.03862066e+01 -1.64708458e+01 
        </DataArray>
        <DataArray type="Float64" Name="v">
          0.00000000e+00 -1.42391442e+01 -1.05101861e+01 -5.08452157e+00 0.00000000e+00 -1.11685447e+01 -9.09795189e+00 -5.15285762e+00 0.00000000e+00 -8.41994027e+00 -7.19073222e+00 -4.39918958e+00 0.00000000e+00 -4.99816145e+00 -4.63659607e+00 -3.01539079e+00 
        </DataArray>
        <DataArray type="Float64" Name="p">
          -4.80619432e+03 -4.73391209e+03 -4.66162987e+03 -4.58934765e+03 -4.72761371e+03 -4.67048595e+03 -4.61335820e+03 -4.55623045e+03 -4.64903310e+03 -4.60705981e+03 -4.56508653e+03 -4.52311324e+03 -4.57045249e+03 -4.54363367e+03 -4.51681486e+03 -4.48999604e+03 
        </DataArray>
      </PointData>
    </Piece>
    <Piece NumberOfPoints="16" NumberOfCells="9">
      <Points>
        <DataArray type="Float64" NumberOfComponents="3" format="ascii">
          2.50000000e+00 8.00000000e+00 0.00000000e+00 
3.33333325e+00 8.00000000e+00 0.00000000e+00 
4.16666651e+00 8.00000000e+00 0.00000000e+00 
5.00000000e+00 8.00000000e+00 0.00000000e+00 
2.50000000e+00 8.33333302e+00 0.00000000e+00 
3.33333325e+00 8.33333302e+00 0.00000000e+00 
4.16666651e+00 8.33333302e+00 0.00000000e+00 
5.00000000e+00 8.33333302e+00 0.00000000e+00 
2.50000000e+00 8.66666698e+00 0.00000000e+00 
3.33333325e+00 8.66666698e+00 0.00000000e+00 
4.16666651e+00 8.66666698e+00 0.00000000e+00 
5.00000000e+00 8.66666698e+00 0.00000000e+00 
2.50000000e+00 9.00000000e+00 0.00000000e+00 
3.33333325e+00 9.00000000e+00 0.00000000e+00 
4.16666651e+00 9.00000000e+00 0.00000000e+00 
5.00000000e+00 9.00000000e+00 0.00000000e+00 

        </DataArray>
      </Points>
      <Cells>
        <DataArray type="Int32" Name="connectivity" format="ascii">
0 1 5 4
4 5 9 8
8 9 13 12
1 2 6 5
5 6 10 9
9 10 14 13
2 3 7 6
6 7 11 10
10 11 15 14

        </DataArray>
        <DataArray type="Int32" Name="offsets" format="ascii">
4 8 12 16 20 24 28 32 36 
        </DataArray>
        <DataArray type="UInt8" Name="types" format="ascii">
9 9 9 9 9 9 9 9 9 
        </DataArray>
      </Cells>
      <PointData>
        <DataArray type="Float64" Name="u">
          0.00000000e+00 -5.91655374e+00 -1.03862066e+01 -1.64708458e+01 0.00000000e+00 -4.50709692e+00 -7.98907828e+00 -1.33227572e+01 0.00000000e+00 -2.54195888e+00 -4.39347759e+00 -7.78668032e+00 0.00000000e+00 0.00000000e+00 0.00000000e+00 0.00000000e+00 
        </DataArray>
        <DataArray type="Float64" Name="v">
          0.00000000e+00 -4.99816145e+00 -4.63659607e+00 -3.01539079e+00 0.00000000e+00 -2.26067960e+00 -2.25190838e+00 -1.45165937e+00 0.00000000e+00 -7.47943762e-01 -8.05238074e-01 -5.14129906e-01 0.00000000e+00 0.00000000e+00 0.00000000e+00 0.00000000e+00 
        </DataArray>
        <DataArray type="Float64" Name="p">
          -4.58521351e+03 -4.55094292e+03 -4.51667234e+03 -4.48240175e+03 -4.59696780e+03 -4.56265117e+03 -4.52833455e+03 -4.49401792e+03 -4.60872209e+03 -4.57435942e+03 -4.53999675e+03 -4.50563409e+03 -4.62047638e+03 -4.58606767e+03 -4.55165896e+03 -4.51725025e+03 
        </DataArray>
      </PointData>
    </Piece>
    <Piece NumberOfPoints="16" NumberOfCells="9">
      <Points>
        <DataArray type="Float64" NumberOfComponents="3" format="ascii">
          5.00000000e+00 0.00000000e+00 0.00000000e+00 
5.83333349e+00 0.00000000e+00 0.00000000e+00 
6.66666651e+00 0.00000000e+00 0.00000000e+00 
7.50000000e+00 0.00000000e+00 0.00000000e+00 
5.00000000e+00 3.33333343e-01 0.00000000e+00 
5.83333349e+00 3.33333343e-01 0.00000000e+00 
6.66666651e+00 3.33333343e-01 0.00000000e+00 
7.50000000e+00 3.33333343e-01 0.00000000e+00 
5.00000000e+00 6.66666687e-01 0.00000000e+00 
5.83333349e+00 6.66666687e-01 0.00000000e+00 
6.66666651e+00 6.66666687e-01 0.00000000e+00 
7.50000000e+00 6.66666687e-01 0.00000000e+00 
5.00000000e+00 1.00000000e+00 0.00000000e+00 
5.83333349e+00 1.00000000e+00 0.00000000e+00 
6.66666651e+00 1.00000000e+00 0.00000000e+00 
7.50000000e+00 1.00000000e+00 0.00000000e+00 

        </DataArray>
      </Points>
      <Cells>
        <DataArray type="Int32" Name="connectivity" format="ascii">
0 1 5 4
4 5 9 8
8 9 13 12
1 2 6 5
5 6 10 9
9 10 14 13
2 3 7 6
6 7 11 10
10 11 15 14

        </DataArray>
        <DataArray type="Int32" Name="offsets" format="ascii">
4 8 12 16 20 24 28 32 36 
        </DataArray>
        <DataArray type="UInt8" Name="types" format="ascii">
9 9 9 9 9 9 9 9 9 
        </DataArray>
      </Cells>
      <PointData>
        <DataArray type="Float64" Name="u">