<?xml version="1.0"?>
<VTKFile type="UnstructuredGrid" version="0.1" byte_order="LittleEndian">
  <UnstructuredGrid>
    <Piece NumberOfPoints="16" NumberOfCells="9">
      <Points>
        <DataArray type="Float64" NumberOfComponents="3" format="ascii">
          0.00000000e+00 3.00000000e+00 0.00000000e+00 
8.33333313e-01 3.00000000e+00 0.00000000e+00 
1.66666663e+00 3.00000000e+00 0.00000000e+00 
2.50000000e+00 3.00000000e+00 0.00000000e+00 
0.00000000e+00 3.33333325e+00 0.00000000e+00 
8.33333313e-01 3.33333325e+00 0.00000000e+00 
1.66666663e+00 3.33333325e+00 0.00000000e+00 
2.50000000e+00 3.33333325e+00 0.00000000e+00 
0.00000000e+00 3.66666675e+00 0.00000000e+00 
8.33333313e-01 3.66666675e+00 0.00000000e+00 
1.66666663e+00 3.66666675e+00 0.00000000e+00 
2.50000000e+00 3.66666675e+00 0.00000000e+00 
0.00000000e+00 4.00000000e+00 0.00000000e+00 
8.33333313e-01 4.00000000e+00 0.00000000e+00 
1.66666663e+00 4.00000000e+00 0.00000000e+00 
2.50000000e+00 4.00000000e+00 0.00000000e+00 

        </DataArray>
      </Points>
      <Cells>
        <DataArray type="Int32" Name="connectivity" format="ascii">
0 1 5 4
4 5 9 8
8 9 13 12
1 2 6 5
5 6 10 9
9 10 14 13
2 3 7 6
6 7 11 10
10 11 15 14

        </DataArray>
        <DataArray type="Int32" Name="offsets" format="ascii">
4 8 12 16 20 24 28 32 36 
        </DataArray>
        <DataArray type="UInt8" Name="types" format="ascii">
9 9 9 9 9 9 9 9 9 
        </DataArray>
      </Cells>
      <PointData>
        <DataArray type="Float64" Name="u">
          0.00000000e+00 0.00000000e+00 0.00000000e+00 0.00000000e+00 8.88888889e+01 8.94654369e+01 8.94898359e+01 9.10252632e+01 1.55555556e+02 1.55374976e+02 1.56247338e+02 1.55818143e+02 2.00000000e+02 1.99003033e+02 2.00351804e+02 1.98787379e+02 
        </DataArray>
        <DataArray type="Float64" Name="v">
          0.00000000e+00 0.00000000e+00 0.00000000e+00 0.00000000e+00 0.00000000e+00 -2.42361604e-01 -3.73605315e-02 -1.65622418e+00 0.00000000e+00 -2.09631486e-01 -2.36401145e-01 -8.33322201e-01 0.00000000e+00 -2.98559848e-01 -2.30359837e-01 -8.06946471e-01 
        </DataArray>
        <DataArray type="Float64" Name="p">
          -1.62116389e+03 -2.99868585e+03 -4.37620782e+03 -5.75372978e+03 -1.63081139e+03 -2.99600297e+03 -4.36119455e+03 -5.72638613e+03 -1.64045888e+03 -2.99332008e+03 -4.34618128e+03 -5.69904247e+03 -1.65010638e+03 -2.99063719e+03 -4.33116801e+03 -5.67169882e+03 
        </DataArray>
      </PointData>
    </Piece>
    <Piece NumberOfPoints="16" NumberOfCells="9">
      <Points>
        <DataArray type="Float64" NumberOfComponents="3" format="ascii">
          0.00000000e+00 4.00000000e+00 0.00000000e+00 
8.33333313e-01 4.00000000e+00 0.00000000e+00 
1.66666663e+00 4.00000000e+00 0.00000000e+00 
2.50000000e+00 4.00000000e+00 0.00000000e+00 
0.00000000e+00 4.33333349e+00 0.00000000e+00 
8.33333313e-01 4.33333349e+00 0.00000000e+00 
1.66666663e+00 4.33333349e+00 0.00000000e+00 
2.50000000e+00 4.33333349e+00 0.00000000e+00 
0.00000000e+00 4.66666651e+00 0.00000000e+00 
8.33333313e-01 4.66666651e+00 0.00000000e+00 
1.66666663e+00 4.66666651e+00 0.00000000e+00 
2.50000000e+00 4.66666651e+00 0.00000000e+00 
0.00000000e+00 5.00000000e+00 0.00000000e+00 
8.33333313e-01 5.00000000e+00 0.00000000e+00 
1.66666663e+00 5.00000000e+00 0.00000000e+00 
2.50000000e+00 5.00000000e+00 0.00000000e+00 

        </DataArray>
      </Points>
      <Cells>
        <DataArray type="Int32" Name="connectivity" format="ascii">
0 1 5 4
4 5 9 8
8 9 13 12
1 2 6 5
5 6 10 9
9 10 14 13
2 3 7 6
6 7 11 10
10 11 15 14

        </DataArray>
        <DataArray type="Int32" Name="offsets" format="ascii">
4 8 12 16 20 24 28 32 36 
        </DataArray>
        <DataArray type="UInt8" Name="types" format="ascii">
9 9 9 9 9 9 9 9 9 
        </DataArray>
      </Cells>
      <PointData>
        <DataArray type="Float64" Name="u">
          2.00000000e+02 1.99003033e+02 2.00351804e+02 1.98787379e+02 2.22222222e+02 2.20986997e+02 2.22198859e+02 2.20631675e+02 2.22222222e+02 2.20986997e+02 2.22198859e+02 2.20631675e+02 2.00000000e+02 1.99003033e+02 2.00351803e+02 1.98787379e+02 
        </DataArray>
        <DataArray type="Float64" Name="v">
          0.00000000e+00 -2.98559848e-01 -2.30359837e-01 -8.06946471e-01 0.00000000e+00 -1.22293601e-02 -1.00327211e-01 3.86963426e-02 0.00000000e+00 1.22293207e-02 1.00327137e-01 -3.86964545e-02 0.00000000e+00 2.98559815e-01 2.30359773e-01 8.06946371e-01 
        </DataArray>
        <DataArray type="Float64" Name="p">
          -1.62918651e+03 -2.97703229e+03 -4.32487808e+03 -5.67272387e+03 -1.62918650e+03 -2.97703229e+03 -4.32487808e+03 -5.67272387e+03 -1.62918650e+03 -2.97703229e+03 -4.32487808e+03 -5.67272386e+03 -1.62918650e+03 -2.97703229e+03 -4.32487808e+03 -5.67272386e+03 
        </DataArray>
      </PointData>
    </Piece>
    <Piece NumberOfPoints="16" NumberOfCells="9">
      <Points>
        <DataArray type="Float64" NumberOfComponents="3" format="ascii">
          0.00000000e+00 5.00000000e+00 0.00000000e+00 
8.33333313e-01 5.00000000e+00 0.00000000e+00 
1.66666663e+00 5.00000000e+00 0.00000000e+00 
2.50000000e+00 5.00000000e+00 0.00000000e+00 
0.00000000e+00 5.33333349e+00 0.00000000e+00 
8.33333313e-01 5.33333349e+00 0.00000000e+00 
1.66666663e+00 5.33333349e+00 0.00000000e+00 
2.50000000e+00 5.33333349e+00 0.00000000e+00 
0.00000000e+00 5.66666651e+00 0.00000000e+00 
8.33333313e-01 5.66666651e+00 0.00000000e+00 
1.66666663e+00 5.66666651e+00 0.00000000e+00 
2.50000000e+00 5.66666651e+00 0.00000000e+00 
0.00000000e+00 6.00000000e+00 0.00000000e+00 
8.33333313e-01 6.00000000e+00 0.00000000e+00 
1.66666663e+00 6.00000000e+00 0.00000000e+00 
2.50000000e+00 6.00000000e+00 0.00000000e+00 

        </DataArray>
      </Points>
      <Cells>
        <DataArray type="Int32" Name="connectivity" format="ascii">
0 1 5 4
4 5 9 8
8 9 13 12
1 2 6 5
5 6 10 9
9 10 14 13
2 3 7 6
6 7 11 10
10 11 15 14

        </DataArray>
        <DataArray type="Int32" Name="offsets" format="ascii">
4 8 12 16 20 24 28 32 36 
        </DataArray>
        <DataArray type="UInt8" Name="types" format="ascii">
9 9 9 9 9 9 9 9 9 
        </DataArray>
      </Cells>
      <PointData>
        <DataArray type="Float64" Name="u">
          2.00000000e+02 1.99003033e+02 2.00351803e+02 1.98787379e+02 1.55555556e+02 1.55374976e+02 1.56247337e+02 1.55818143e+02 8.88888889e+01 8.94654369e+01 8.94898358e+01 9.10252631e+01 0.00000000e+00 0.00000000e+00 0.00000000e+00 0.00000000e+00 
        </DataArray>
        <DataArray type="Float64" Name="v">
          0.00000000e+00 2.98559815e-01 2.30359773e-01 8.06946371e-01 0.00000000e+00 2.09631472e-01 2.36401111e-01 8.33322138e-01 0.00000000e+00 2.42361590e-01 3.73605055e-02 1.65622413e+00 0.00000000e+00 0.00000000e+00 0.00000000e+00 0.00000000e+00 
        </DataArray>
        <DataArray type="Float64" Name="p">
          -1.65010638e+03 -2.99063719e+03 -4.33116800e+03 -5.67169881e+03 -1.64045888e+03 -2.99332007e+03 -4.34618127e+03 -5.69904247e+03 -1.63081138e+03 -2.99600296e+03 -4.36119454e+03 -5.72638612e+03 -1.62116388e+03 -2.99868585e+03 -4.37620781e+03 -5.75372977e+03 
        </DataArray>
      </PointData>
    </Piece>
    <Piece NumberOfPoints="16" NumberOfCells="9">
      <Points>
        <DataArray type="Float64" NumberOfComponents="3" format="ascii">
          2.50000000e+00 0.00000000e+00 0.00000000e+00 
3.33333325e+00 0.00000000e+00 0.00000000e+00 
4.16666651e+00 0.00000000e+00 0.00000000e+00 
5.00000000e+00 0.00000000e+00 0.00000000e+00 
2.50000000e+00 3.33333343e-01 0.00000000e+00 
3.33333325e+00 3.33333343e-01 0.00000000e+00 
4.16666651e+00 3.33333343e-01 0.00000000e+00 
5.00000000e+00 3.33333343e-01 0.00000000e+00 
2.50000000e+00 6.66666687e-01 0.00000000e+00 
3.33333325e+00 6.66666687e-01 0.00000000e+00 
4.16666651e+00 6.66666687e-01 0.00000000e+00 
5.00000000e+00 6.66666687e-01 0.00000000e+00 
2.50000000e+00 1.00000000e+00 0.00000000e+00 
3.33333325e+00 1.00000000e+00 0.00000000e+00 
4.16666651e+00 1.00000000e+00 0.00000000e+00 
5.00000000e+00 1.00000000e+00 0.00000000e+00 

        </DataArray>
      </Points>
      <Cells>
        <DataArray type="Int32" Name="connectivity" format="ascii">
0 1 5 4
4 5 9 8
8 9 13 12
1 2 6 5
5 6 10 9
9 10 14 13
2 3 7 6
6 7 11 10
10 11 15 14

        </DataArray>
        <DataArray type="Int32" Name="offsets" format="ascii">
4 8 12 16 20 24 28 32 36 
        </DataArray>
        <DataArray type="UInt8" Name="types" format="ascii">
9 9 9 9 9 9 9 9 9 
        </DataArray>
      </Cells>
      <PointData>
        <DataArray type="Float64" Name="u">
          0.00000000e+00 0.00000000e+00 0.00000000e+00 0.00000000e+00 0.00000000e+00 -2.99043168e+00 -5.05851402e+00 -9.09197746e+00 0.00000000e+00 -5.21368561e+00 -9.05112049e+00 -1.53184588e+01 0.00000000e+00 -6.69512283e+00 -1.14719823e+01 -1.83507494e+01 
        </DataArray>
        <DataArray type="Float64" Name="v">
          0.00000000e+00 0.00000000e+00 0.00000000e+00 0.00000000e+00 0.00000000e+00 8.78714745e-01 9.43503434e-01 6.55348693e-01 0.00000000e+00 2.60087285e+00 2.60253944e+00 1.74597911e+00 0.00000000e+00 5.69631612e+00 5.34174163e+00 3.51865005e+00 
        </DataArray>
        <DataArray type="Float64" Name="p">
          -5.34693724e+03 -5.29894845e+03 -5.25095966e+03 -5.20297088e+03 -5.33382648e+03 -5.28568447e+03 -5.23754245e+03 -5.18940044e+03 -5.32071573e+03 -5.27242049e+03 -5.22412524e+03 -5.17582999e+03 -5.30760498e+03 -5.25915651e+03 -5.21070803e+03 -5.16225955e+03 
        </DataArray>
      </PointData>
    </Piece>
    <Piece NumberOfPoints="16" NumberOfCells="9">
      <Points>
        <DataArray type="Float64" NumberOfComponents="3" format="ascii">
          2.50000000e+00 1.00000000e+00 0.00000000e+00 
3.33333325e+00 1.00000000e+00 0.00000000e+00 
4.16666651e+00 1.00000000e+00 0.00000000e+00 
5.00000000e+00 1.00000000e+00 0.00000000e+00 
2.50000000e+00 1.33333337e+00 0.00000000e+00 
3.33333325e+00 1.33333337e+00 0.00000000e+00 
4.16666651e+00 1.33333337e+00 0.00000000e+00 
5.00000000e+00 1.33333337e+00 0.00000000e+00 
2.50000000e+00 1.66666663e+00 0.00000000e+00 
3.33333325e+00 1.66666663e+00 0.00000000e+00 
4.16666651e+00 1.66666663e+00 0.00000000e+00 
5.00000000e+00 1.66666663e+00 0.00000000e+00 
2.50000000e+00 2.00000000e+00 0.00000000e+00 
3.33333325e+00 2.00000000e+00 0.00000000e+00 
4.16666651e+00 2.00000000e+00 0.00000000e+00 
5.00000000e+00 2.00000000e+00 0.00000000e+00 

        </DataArray>
      </Points>
      <Cells>
        <DataArray type="Int32" Name="connectivity" format="ascii">
0 1 5 4
4 5 9 8
8 9 13 12
1 2 6 5
5 6 10 9
9 10 14 13
2 3 7 6
6 7 11 10
10 11 15 14

        </DataArray>
        <DataArray type="Int32" Name="offsets" format="ascii">
4 8 12 16 20 24 28 32 36 
        </DataArray>
        <DataArray type="UInt8" Name="types" format="ascii">
9 9 9 9 9 9 9 9 9 
        </DataArray>
      </Cells>
      <PointData>
        <DataArray type="Float64" Name="u">
          0.00000000e+00 -6.69512283e+00 -1.14719823e+01 -1.83507494e+01 0.00000000e+00 -7.42613823e+00 -1.19573390e+01 -1.79842510e+01 0.00000000e+00 -7.16477971e+00 -1.00620488e+01 -1.35960657e+01 0.00000000e+00 -5.34054331e+00 -5.07013048e+00 -4.46650990e+00 
        </DataArray>
        <DataArray type="Float64" Name="v">
          0.00000000e+00 5.69631612e+00 5.34174163e+00 3.51865005e+00 0.00000000e+00 9.43258330e+00 8.13426902e+00 4.86338643e+00 0.00000000e+00 1.23117906e+01 1.00472444e+01 5.29082006e+00 0.00000000e+00 1.53046159e+01 1.11059621e+01 4.42437280e+00 
        </DataArray>
        <DataArray type="Float64" Name="p">
          -5.29223783e+03 -5.25291488e+03 -5.21359193e+03 -5.17426899e+03 -5.38326023e+03 -5.32920025e+03 -5.27514026e+03 -5.22108027e+03 -5.47428264e+03 -5.40548561e+03 -5.33668858e+03 -5.26789155e+03 -5.56530504e+03 -5.48177097e+03 -5.39823691e+03 -5.31470284e+03 
        </DataArray>
      </PointData>
    </Piece>
    <Piece NumberOfPoints="16" NumberOfCells="9">
      <Points>
        <DataArray type="Float64" NumberOfComponents="3" format="ascii">
          2.50000000e+00 2.00000000e+00 0.00000000e+00 
3.33333325e+00 2.00000000e+00 0.00000000e+00 
4.16666651e+00 2.00000000e+00 0.00000000e+00 
5.00000000e+00 2.00000000e+00 0.00000000e+00 
2.50000000e+00 2.33333325e+00 0.00000000e+00 
3.33333325e+00 2.33333325e+00 0.00000000e+00 
4.16666651e+00 2.33333325e+00 0.00000000e+00 
5.00000000e+00 2.33333325e+00 0.00000000e+00 
2.50000000e+00 2.66666675e+00 0.00000000e+00 
3.33333325e+00 2.66666675e+00 0.00000000e+00 
4.16666651e+00 2.66666675e+00 0.00000000e+00 
5.00000000e+00 2.66666675e+00 0.00000000e+00 
2.50000000e+00 3.00000000e+00 0.00000000e+00 
3.33333325e+00 3.00000000e+00 0.00000000e+00 
4.16666651e+00 3.00000000e+00 0.00000000e+00 
5.00000000e+00 3.00000000e+00 0.00000000e+00 

        </DataArray>
      </Points>
      <Cells>
        <DataArray type="Int32" Name="connectivity" format="ascii">
0 1 5 4
4 5 9 8
8 9 13 12
1 2 6 5
5 6 10 9
9 10 14 13
2 3 7 6
6 7 11 10
10 11 15 14

        </DataArray>
        <DataArray type="Int32" Name="offsets" format="ascii">
4 8 12 16 20 24 28 32 36 
        </DataArray>
        <DataArray type="UInt8" Name="types" format="ascii">
9 9 9 9 9 9 9 9 9 
        </DataArray>
      </Cells>
      <PointData>
        <DataArray type="Float64" Name="u">
          0.00000000e+00 -5.34054331e+00 -5.07013048e+00 -4.46650990e+00 0.00000000e+00 -7.18425509e-01 3.70059005e+00 1.17695614e+01 0.00000000e+00 1.22790169e+01 2.05855455e+01 3.53355082e+01 0.00000000e+00 4.63658364e+01 5.18789518e+01 6.89391737e+01 
        </DataArray>
        <DataArray type="Float64" Name="v">
          0.00000000e+00 1.53046159e+01 1.11059621e+01 4.42437280e+00 0.00000000e+00 1.67762846e+01 9.13802713e+00 1.25171203e+00 0.00000000e+00 1.33405460e+01 6.22709564e+00 -1.36741983e+00 0.00000000e+00 2.16778569e+00 -6.26658983e-01 -3.28242218e+00 
        </DataArray>
        <DataArray type="Float64" Name="p">
          -5.52835838e+03 -5.49246016e+03 -5.45656194e+03 -5.42066372e+03 -5.85732369e+03 -5.65531950e+03 -5.45331532e+03 -5.25131113e+03 -6.18628900e+03 -5.81817885e+03 -5.45006870e+03 -5.08195854e+03 -6.51525431e+03 -5.98103819e+03 -5.44682207e+03 -4.91260596e+03 
        </DataArray>
      </PointData>
    </Piece>
    <Piece NumberOfPoints="16" NumberOfCells="9">
      <Points>
        <DataArray type="Float64" NumberOfComponents="3" format="ascii">
          2.50000000e+00 3.00000000e+00 0.00000000e+00 
3.33333325e+00 3.00000000e+00 0.00000000e+00 
4.16666651e+00 3.00000000e+00 0.00000000e+00 
5.00000000e+00 3.00000000e+00 0.00000000e+00 
2.50000000e+00 3.33333325e+00 0.00000000e+00 
3.33333325e+00 3.33333325e+00 0.00000000e+00 
4.16666651e+00 3.33333325e+00 0.00000000e+00 
5.00000000e+00 3.33333325e+00 0.00000000e+00 
2.50000000e+00 3.66666675e+00 0.00000000e+00 
3.33333325e+00 3.66666675e+00 0.00000000e+00 
4.16666651e+00 3.66666675e+00 0.00000000e+00 
5.00000000e+00 3.66666675e+00 0.00000000e+00 
2.50000000e+00 4.00000000e+00 0.00000000e+00 
3.33333325e+00 4.00000000e+00 0.00000000e+00 
4.16666651e+00 4.00000000e+00 0.00000000e+00 
5.00000000e+00 4.00000000e+00 0.00000000e+00 

        </DataArray>
      </Points>
      <Cells>
        <DataArray type="Int32" Name="connectivity" format="ascii">
0 1 5 4
4 5 9 8
8 9 13 12
1 2 6 5
5 6 10 9
9 10 14 13
2 3 7 6
6 7 11 10
10 11 15 14

        </DataArray>
        <DataArray type="Int32" Name="offsets" format="ascii">
4 8 12 16 20 24 28 32 36 
        </DataArray>
        <DataArray type="UInt8" Name="types" format="ascii">
9 9 9 9 9 9 9 9 9 
        </DataArray>
      </Cells>
      <PointData>
        <DataArray type="Float64" Name="u">
          0.00000000e+00 4.63658364e+01 5.18789518e+01 6.89391737e+01 9.10252632e+01 9.59540200e+01 1.00483041e+02 1.06070174e+02 1.55818143e+02 1.51309131e+02 1.51172606e+02 1.48473436e+02 1.98787379e+02 1.91751181e+02 1.90429838e+02 1.82800552e+02 
        </DataArray>
        <DataArray type="Float64" Name="v">
          0.00000000e+00 2.16778569e+00 -6.26658983e-01 -3.28242218e+00 -1.65622418e+00 -6.51830418e+00 -4.96898544e+00 -2.30776168e+00 -8.33322201e-01 -6.80729308e+00 -6.61632134e+00 -2.91878337e+00 -8.06946471e-01 -4.44583617e+00 -4.17434325e+00 -2.41274114e+00 
        </DataArray>
        <DataArray type="Float64" Name="p">
          -6.58197848e+03 -5.95377140e+03 -5.32556433e+03 -4.69735726e+03 -6.09338219e+03 -5.71972282e+03 -5.34606344e+03 -4.97240407e+03 -5.60478591e+03 -5.48567423e+03 -5.36656256e+03 -5.24745088e+03 -5.11618963e+03 -5.25162565e+03 -5.38706167e+03 -5.52249769e+03 
        </DataArray>
      </PointData>
    </Piece>
    <Piece NumberOfPoints="16" NumberOfCells="9">
      <Points>
        <DataArray type="Float64" NumberOfComponents="3" format="ascii">
          2.50000000e+00 4.00000000e+00 0.00000000e+00 
3.33333325e+00 4.00000000e+00 0.00000000e+00 
4.16666651e+00 4.00000000e+00 0.00000000e+00 
5.00000000e+00 4.00000000e+00 0.00000000e+00 
2.50000000e+00 4.33333349e+00 0.00000000e+00 
3.33333325e+00 4.33333349e+00 0.00000000e+00 
4.16666651e+00 4.33333349e+00 0.00000000e+00 
5.00000000e+00 4.33333349e+00 0.00000000e+00 
2.50000000e+00 4.66666651e+00 0.00000000e+00 
3.33333325e+00 4.66666651e+00 0.00000000e+00 
4.16666651e+00 4.66666651e+00 0.00000000e+00 
5.00000000e+00 4.66666651e+00 0.00000000e+00 
2.50000000e+00 5.00000000e+00 0.00000000e+00 
3.33333325e+00 5.00000000e+00 0.00000000e+00 
4.16666651e+00 5.00000000e+00 0.00000000e+00 
5.00000000e+00 5.00000000e+00 0.00000000e+00 

        </DataArray>
      </Points>
      <Cells>
        <DataArray type="Int32" Name="connectivity" format="ascii">
0 1 5 4
4 5 9 8
8 9 13 12
1 2 6 5
5 6 10 9
9 10 14 13
2 3 7 6
6 7 11 10
10 11 15 14

        </DataArray>
        <DataArray type="Int32" Name="offsets" format="ascii">
4 8 12 16 20 24 28 32 36 
        </DataArray>
        <DataArray type="UInt8" Name="types" format="ascii">
9 9 9 9 9 9 9 9 9 
        </DataArray>
      </Cells>
      <PointData>
        <DataArray type="Float64" Name="u">
          1.98787379e+02 1.91751181e+02 1.90429838e+02 1.82800552e+02 2.20631675e+02 2.12676856e+02 2.10249658e+02 2.01727096e+02 2.20631675e+02 2.12676856e+02 2.10249658e+02 2.01727096e+02 1.98787379e+02 1.91751181e+02 1.90429838e+02 1.82800552e+02 
        </DataArray>
        <DataArray type="Float64" Name="v">
          -8.06946471e-01 -4.44583617e+00 -4.17434325e+00 -2.41274114e+00 3.86963426e-02 -5.25771696e-01 -1.23348270e+00 -1.15281257e+00 -3.86964545e-02 5.25771526e-01 1.23348247e+00 1.15281226e+00 8.06946371e-01 4.44583601e+00 4.17434303e+00 2.41274086e+00 
        </DataArray>
        <DataArray type="Float64" Name="p">
          -4.95172564e+03 -5.17394793e+03 -5.39617021e+03 -5.61839250e+03 -4.95172564e+03 -5.17394793e+03 -5.39617021e+03 -5.61839250e+03 -4.95172564e+03 -5.17394792e+03 -5.39617021e+03 -5.61839249e+03 -4.95172563e+03 -5.17394792e+03 -5.39617020e+03 -5.61839249e+03 
        </DataArray>
      </PointData>
    </Piece>
    <Piece NumberOfPoints="16" NumberOfCells="9">
      <Points>
        <DataArray type="Float64" NumberOfComponents="3" format="ascii">
          2.50000000e+00 5.00000000e+00 0.00000000e+00 
3.33333325e+00 5.00000000e+00 0.00000000e+00 
4.16666651e+00 5.00000000e+00 0.00000000e+00 
5.00000000e+00 5.00000000e+00 0.00000000e+00 
2.50000000e+00 5.33333349e+00 0.00000000e+00 
3.33333325e+00 5.33333349e+00 0.00000000e+00 
4.16666651e+00 5.33333349e+00 0.00000000e+00 
5.00000000e+00 5.33333349e+00 0.00000000e+00 
2.50000000e+00 5.66666651e+00 0.00000000e+00 
3.33333325e+00 5.66666651e+00 0.00000000e+00 
4.16666651e+00 5.66666651e+00 0.00000000e+00 
5.00000000e+00 5.66666651e+00 0.00000000e+00 
2.50000000e+00 6.00000000e+00 0.00000000e+00 
3.33333325e+00 6.00000000e+00 0.00000000e+00 
4.16666651e+00 6.00000000e+00 0.00000000e+00 
5.00000000e+00 6.00000000e+00 0.00000000e+00 

        </DataArray>
      </Points>
      <Cells>
        <DataArray type="Int32" Name="connectivity" format="ascii">
0 1 5 4
4 5 9 8
8 9 13 12
1 2 6 5
5 6 10 9
9 10 14 13
2 3 7 6
6 7 11 10
10 11 15 14

        </DataArray>
        <DataArray type="Int32" Name="offsets" format="ascii">
4 8 12 16 20 24 28 32 36 
        </DataArray>
        <DataArray type="UInt8" Name="types" format="ascii">
9 9 9 9 9 9 9 9 9 
        </DataArray>
      </Cells>
      <PointData>
        <DataArray type="Float64" Name="u">
          1.98787379e+02 1.91751181e+02 1.90429838e+02 1.82800552e+02 1.55818143e+02 1.51309131e+02 1.51172605e+02 1.48473436e+02 9.10252631e+01 9.59540198e+01 1.00483041e+02 1.06070174e+02 0.00000000e+00 4.63658362e+01 5.18789516e+01 6.89391734e+01 
        </DataArray>
        <DataArray type="Float64" Name="v">
          8.06946371e-01 4.44583601e+00 4.17434303e+00 2.41274086e+00 8.33322138e-01 6.80729296e+00 6.61632116e+00 2.91878315e+00 1.65622413e+00 6.51830406e+00 4.96898528e+00 2.30776149e+00 0.00000000e+00 -2.16778576e+00 6.26658876e-01 3.28242204e+00 
        </DataArray>
        <DataArray type="Float64" Name="p">
          -5.11618962e+03 -5.25162564e+03 -5.38706166e+03 -5.52249768e+03 -5.60478590e+03 -5.48567422e+03 -5.36656254e+03 -5.24745087e+03 -6.09338218e+03 -5.71972280e+03 -5.34606343e+03 -4.97240406e+03 -6.58197846e+03 -5.95377139e+03 -5.32556431e+03 -4.69735724e+03 
        </DataArray>
      </PointData>
    </Piece>
    <Piece NumberOfPoints="16" NumberOfCells="9">
      <Points>
        <DataArray type="Float64" NumberOfComponents="3" format="ascii">
          2.50000000e+00 6.00000000e+00 0.00000000e+00 
3.33333325e+00 6.00000000e+00 0.00000000e+00 
4.16666651e+00 6.00000000e+00 0.00000000e+00 
5.00000000e+00 6.00000000e+00 0.00000000e+00 
2.50000000e+00 6.33333349e+00 0.00000000e+00 
3.33333325e+00 6.33333349e+00 0.00000000e+00 
4.16666651e+00 6.33333349e+00 0.00000000e+00 
5.00000000e+00 6.33333349e+00 0.00000000e+00 
2.50000000e+00 6.66666651e+00 0.00000000e+00 
3.33333325e+00 6.66666651e+00 0.00000000e+00 
4.16666651e+00 6.66666651e+00 0.00000000e+00 
5.00000000e+00 6.66666651e+00 0.00000000e+00 
2.50000000e+00 7.00000000e+00 0.00000000e+00 
3.33333325e+00 7.00000000e+00 0.00000000e+00 
4.16666651e+00 7.00000000e+00 0.00000000e+00 
5.00000000e+00 7.00000000e+00 0.00000000e+00 

        </DataArray>
      </Points>
      <Cells>
        <DataArray type="Int32" Name="connectivity" format="ascii">
0 1 5 4
4 5 9 8
8 9 13 12
1 2 6 5
5 6 10 9
9 10 14 13
2 3 7 6
6 7 11 10
10 11 15 14

        </DataArray>
        <DataArray type="Int32" Name="offsets" format="ascii">
4 8 12 16 20 24 28 32 36 
        </DataArray>
        <DataArray type="UInt8" Name="types" format="ascii">
9 9 9 9 9 9 9 9 9 
        </DataArray>
      </Cells>
      <PointData>
        <DataArray type="Float64" Name="u">
          0.00000000e+00 4.63658362e+01 5.18789516e+01 6.89391734e+01 0.00000000e+00 1.22790168e+01 2.05855454e+01 3.53355080e+01 0.00000000e+00 -7.18425534e-01 3.70058997e+00 1.17695612e+01 0.00000000e+00 -5.34054332e+00 -5.07013052e+00 -4.46651000e+00 
        </DataArray>
        <DataArray type="Float64" Name="v">
          0.00000000e+00 -2.16778576e+00 6.26658876e-01 3.28242204e+00 0.00000000e+00 -1.33405461e+01 -6.22709569e+00 1.36741973e+00 0.00000000e+00 -1.67762846e+01 -9.13802716e+00 -1.25171210e+00 0.00000000e+00 -1.53046159e+01 -1.11059621e+01 -4.42437283e+00 
        </DataArray>
        <DataArray type="Float64" Name="p">
          -6.51525429e+03 -5.98103817e+03 -5.44682206e+03 -4.91260594e+03 -6.18628898e+03 -5.81817883e+03 -5.45006868e+03 -5.08195853e+03 -5.85732367e+03 -5.65531949e+03 -5.45331530e+03 -5.25131111e+03 -5.52835836e+03 -5.49246014e+03 -5.45656192e+03 -5.42066370e+03 
        </DataArray>
      </PointData>
    </Piece>
    <Piece NumberOfPoints="16" NumberOfCells="9">
      <Points>
        <DataArray type="Float64" NumberOfComponents="3" format="ascii">
          2.50000000e+00 7.00000000e+00 0.00000000e+00 
3.33333325e+00 7.00000000e+00 0.00000000e+00 
4.16666651e+00 7.00000000e+00 0.00000000e+00 
5.00000000e+00 7.00000000e+00 0.00000000e+00 
2.50000000e+00 7.33333349e+00 0.00000000e+00 
3.33333325e+00 7.33333349e+00 0.00000000e+00 
4.16666651e+00 7.33333349e+00 0.00000000e+00 
5.00000000e+00 7.33333349e+00 0.00000000e+00 
2.50000000e+00 7.66666651e+00 0.00000000e+00 
3.33333325e+00 7.66666651e+00 0.00000000e+00 
4.16666651e+00 7.66666651e+00 0.00000000e+00 
5.00000000e+00 7.66666651e+00 0.00000000e+00 
2.50000000e+00 8.00000000e+00 0.00000000e+00 
3.33333325e+00 8.00000000e+00 0.00000000e+00 
4.16666651e+00 8.00000000e+00 0.00000000e+00 
5.00000000e+00 8.00000000e+00 0.00000000e+00 

        </DataArray>
      </Points>
      <Cells>
        <DataArray type="Int32" Name="connectivity" format="ascii">
0 1 5 4
4 5 9 8
8 9 13 12
1 2 6 5
5 6 10 9
9 10 14 13
2 3 7 6
6 7 11 10
10 11 15 14

        </DataArray>
        <DataArray type="Int32" Name="offsets" format="ascii">
4 8 12 16 20 24 28 32 36 
        </DataArray>
        <DataArray type="UInt8" Name="types" format="ascii">
9 9 9 9 9 9 9 9 9 
        </DataArray>
      </Cells>
      <PointData>
        <DataArray type="Float64" Name="u">
          0.00000000e+00 -5.34054332e+00 -5.07013052e+00 -4.46651000e+00 0.00000000e+00 -7.16477971e+00 -1.00620488e+01 -1.35960657e+01 0.00000000e+00 -7.42613822e+00 -1.19573390e+01 -1.79842510e+01 0.00000000e+00 -6.69512281e+00 -1.14719823e+01 -1.83507494e+01 
        </DataArray>
        <DataArray type="Float64" Name="v">
          0.00000000e+00 -1.53046159e+01 -1.11059621e+01 -4.42437283e+00 0.00000000e+00 -1.23117906e+01 -1.00472444e+01 -5.29082007e+00 0.00000000e+00 -9.43258328e+00 -8.13426900e+00 -4.86338643e+00 0.00000000e+00 -5.69631610e+00 -5.34174162e+00 -3.51865004e+00 
        </DataArray>
        <DataArray type="Float64" Name="p">
          -5.56530502e+03 -5.48177096e+03 -5.39823689e+03 -5.31470282e+03 -5.47428262e+03 -5.40548559e+03 -5.33668856e+03 -5.26789154e+03 -5.38326022e+03 -5.32920023e+03 -5.27514024e+03 -5.22108025e+03 -5.29223781e+03 -5.25291487e+03 -5.21359192e+03 -5.17426897e+03 
        </DataArray>
      </PointData>
    </Piece>
    <Piece NumberOfPoints="16" NumberOfCells="9">
      <Points>
        <DataArray type="Float64" NumberOfComponents="3" format="ascii">
          2.50000000e+00 8.00000000e+00 0.00000000e+00 
3.33333325e+00 8.00000000e+00 0.00000000e+00 
4.16666651e+00 8.00000000e+00 0.00000000e+00 
5.00000000e+00 8.00000000e+00 0.00000000e+00 
2.50000000e+00 8.33333302e+00 0.00000000e+00 
3.33333325e+00 8.33333302e+00 0.00000000e+00 
4.16666651e+00 8.33333302e+00 0.00000000e+00 
5.00000000e+00 8.33333302e+00 0.00000000e+00 
2.50000000e+00 8.66666698e+00 0.00000000e+00 
3.33333325e+00 8.66666698e+00 0.00000000e+00 
4.16666651e+00 8.66666698e+00 0.00000000e+00 
5.00000000e+00 8.66666698e+00 0.00000000e+00 
2.50000000e+00 9.00000000e+00 0.00000000e+00 
3.33333325e+00 9.00000000e+00 0.00000000e+00 
4.16666651e+00 9.00000000e+00 0.00000000e+00 
5.00000000e+00 9.00000000e+00 0.00000000e+00 

        </DataArray>
      </Points>
      <Cells>
        <DataArray type="Int32" Name="connectivity" format="ascii">
0 1 5 4
4 5 9 8
8 9 13 12
1 2 6 5
5 6 10 9
9 10 14 13
2 3 7 6
6 7 11 10
10 11 15 14

        </DataArray>
        <DataArray type="Int32" Name="offsets" format="ascii">
4 8 12 16 20 24 28 32 36 
        </DataArray>
        <DataArray type="UInt8" Name="types" format="ascii">
9 9 9 9 9 9 9 9 9 
        </DataArray>
      </Cells>
      <PointData>
        <DataArray type="Float64" Name="u">
          0.00000000e+00 -6.69512281e+00 -1.14719823e+01 -1.83507494e+01 0.00000000e+00 -5.21368560e+00 -9.05112046e+00 -1.53184588e+01 0.00000000e+00 -2.99043167e+00 -5.05851401e+00 -9.09197743e+00 0.00000000e+00 0.00000000e+00 0.00000000e+00 0.00000000e+00 
        </DataArray>
        <DataArray type="Float64" Name="v">
          0.00000000e+00 -5.69631610e+00 -5.34174162e+00 -3.51865004e+00 0.00000000e+00 -2.60087284e+00 -2.60253944e+00 -1.74597910e+00 0.00000000e+00 -8.78714742e-01 -9.43503431e-01 -6.55348689e-01 0.00000000e+00 0.00000000e+00 0.00000000e+00 0.00000000e+00 
        </DataArray>
        <DataArray type="Float64" Name="p">
          -5.30760497e+03 -5.25915649e+03 -5.21070801e+03 -5.16225954e+03 -5.32071572e+03 -5.27242047e+03 -5.22412522e+03 -5.17582998e+03 -5.33382647e+03 -5.28568445e+03 -5.23754244e+03 -5.18940042e+03 -5.34693722e+03 -5.29894843e+03 -5.25095965e+03 -5.20297086e+03 
        </DataArray>
      </PointData>
    </Piece>
    <Piece NumberOfPoints="16" NumberOfCells="9">
      <Points>
        <DataArray type="Float64" NumberOfComponents="3" format="ascii">
          5.00000000e+00 0.00000000e+00 0.00000000e+00 
5.83333349e+00 0.00000000e+00 0.00000000e+00 
6.66666651e+00 0.00000000e+00 0.00000000e+00 
7.50000000e+00 0.00000000e+00 0.00000000e+00 
5.00000000e+00 3.33333343e-01 0.00000000e+00 
5.83333349e+00 3.33333343e-01 0.00000000e+00 
6.66666651e+00 3.33333343e-01 0.00000000e+00 
7.50000000e+00 3.33333343e-01 0.00000000e+00 
5.00000000e+00 6.66666687e-01 0.00000000e+00 
5.83333349e+00 6.66666687e-01 0.00000000e+00 
6.66666651e+00 6.66666687e-01 0.00000000e+00 
7.50000000e+00 6.66666687e-01 0.00000000e+00 
5.00000000e+00 1.00000000e+00 0.00000000e+00 
5.83333349e+00 1.00000000e+00 0.00000000e+00 
6.66666651e+00 1.00000000e+00 0.00000000e+00 
7.50000000e+00 1.00000000e+00 0.00000000e+00 

        </DataArray>
      </Points>
      <Cells>
        <DataArray type="Int32" Name="connectivity" format="ascii">
0 1 5 4
4 5 9 8
8 9 13 12
1 2 6 5
5 6 10 9
9 10 14 13
2 3 7 6
6 7 11 10
10 11 15 14

        </DataArray>
        <DataArray type="Int32" Name="offsets" format="ascii">
4 8 12 16 20 24 28 32 36 
        </DataArray>
        <DataArray type="UInt8" Name="types" format="ascii">
9 9 9 9 9 9 9 9 9 
        </DataArray>
      </Cells>
      <PointData>
        <DataArray type="Float64" Name="u">