<?xml version="1.0"?>
<VTKFile type="UnstructuredGrid" version="0.1" byte_order="LittleEndian">
  <UnstructuredGrid>
    <Piece NumberOfPoints="16" NumberOfCells="9">
      <Points>
        <DataArray type="Float64" NumberOfComponents="3" format="ascii">
          0.00000000e+00 3.00000000e+00 0.00000000e+00 
8.33333313e-01 3.00000000e+00 0.00000000e+00 
1.66666663e+00 3.00000000e+00 0.00000000e+00 
2.50000000e+00 3.00000000e+00 0.00000000e+00 
0.00000000e+00 3.33333325e+00 0.00000000e+00 
8.33333313e-01 3.33333325e+00 0.00000000e+00 
1.66666663e+00 3.33333325e+00 0.00000000e+00 
2.50000000e+00 3.33333325e+00 0.00000000e+00 
0.00000000e+00 3.66666675e+00 0.00000000e+00 
8.33333313e-01 3.66666675e+00 0.00000000e+00 
1.66666663e+00 3.66666675e+00 0.00000000e+00 
2.50000000e+00 3.66666675e+00 0.00000000e+00 
0.00000000e+00 4.00000000e+00 0.00000000e+00 
8.33333313e-01 4.00000000e+00 0.00000000e+00 
1.66666663e+00 4.00000000e+00 0.00000000e+00 
2.50000000e+00 4.00000000e+00 0.00000000e+00 

        </DataArray>
      </Points>
      <Cells>
        <DataArray type="Int32" Name="connectivity" format="ascii">
0 1 5 4
4 5 9 8
8 9 13 12
1 2 6 5
5 6 10 9
9 10 14 13
2 3 7 6
6 7 11 10
10 11 15 14

        </DataArray>
        <DataArray type="Int32" Name="offsets" format="ascii">
4 8 12 16 20 24 28 32 36 
        </DataArray>
        <DataArray type="UInt8" Name="types" format="ascii">
9 9 9 9 9 9 9 9 9 
        </DataArray>
      </Cells>
      <PointData>
        <DataArray type="Float64" Name="u">
          0.00000000e+00 0.00000000e+00 0.00000000e+00 0.00000000e+00 8.88888889e+01 8.67954135e+01 8.72227997e+01 8.12754201e+01 1.55555556e+02 1.52936918e+02 1.53745513e+02 1.47951276e+02 2.00000000e+02 1.97561561e+02 1.98437669e+02 1.93795018e+02 
        </DataArray>
        <DataArray type="Float64" Name="v">
          0.00000000e+00 0.00000000e+00 0.00000000e+00 0.00000000e+00 0.00000000e+00 6.75170876e-01 1.59686957e+00 1.39775911e+00 0.00000000e+00 6.41404588e-01 1.75964478e+00 2.90824670e+00 0.00000000e+00 1.70177358e+00 3.54208860e+00 5.01170467e+00 
        </DataArray>
        <DataArray type="Float64" Name="p">
          -2.04670997e+03 -3.11744341e+03 -4.18817685e+03 -5.25891028e+03 -2.08327867e+03 -3.15897757e+03 -4.23467647e+03 -5.31037536e+03 -2.11984737e+03 -3.20051173e+03 -4.28117609e+03 -5.36184044e+03 -2.15641607e+03 -3.24204589e+03 -4.32767570e+03 -5.41330552e+03 
        </DataArray>
      </PointData>
    </Piece>
    <Piece NumberOfPoints="16" NumberOfCells="9">
      <Points>
        <DataArray type="Float64" NumberOfComponents="3" format="ascii">
          0.00000000e+00 4.00000000e+00 0.00000000e+00 
8.33333313e-01 4.00000000e+00 0.00000000e+00 
1.66666663e+00 4.00000000e+00 0.00000000e+00 
2.50000000e+00 4.00000000e+00 0.00000000e+00 
0.00000000e+00 4.33333349e+00 0.00000000e+00 
8.33333313e-01 4.33333349e+00 0.00000000e+00 
1.66666663e+00 4.33333349e+00 0.00000000e+00 
2.50000000e+00 4.33333349e+00 0.00000000e+00 
0.00000000e+00 4.66666651e+00 0.00000000e+00 
8.33333313e-01 4.66666651e+00 0.00000000e+00 
1.66666663e+00 4.66666651e+00 0.00000000e+00 
2.50000000e+00 4.66666651e+00 0.00000000e+00 
0.00000000e+00 5.00000000e+00 0.00000000e+00 
8.33333313e-01 5.00000000e+00 0.00000000e+00 
1.66666663e+00 5.00000000e+00 0.00000000e+00 
2.50000000e+00 5.00000000e+00 0.00000000e+00 

        </DataArray>
      </Points>
      <Cells>
        <DataArray type="Int32" Name="connectivity" format="ascii">
0 1 5 4
4 5 9 8
8 9 13 12
1 2 6 5
5 6 10 9
9 10 14 13
2 3 7 6
6 7 11 10
10 11 15 14

        </DataArray>
        <DataArray type="Int32" Name="offsets" format="ascii">
4 8 12 16 20 24 28 32 36 
        </DataArray>
        <DataArray type="UInt8" Name="types" format="ascii">
9 9 9 9 9 9 9 9 9 
        </DataArray>
      </Cells>
      <PointData>
        <DataArray type="Float64" Name="u">
          2.00000000e+02 1.97561561e+02 1.98437669e+02 1.93795018e+02 2.22222222e+02 2.20669856e+02 2.21437909e+02 2.19035764e+02 2.22222222e+02 2.21852220e+02 2.22746880e+02 2.22648604e+02 2.00000000e+02 2.00839454e+02 2.01908956e+02 2.04208762e+02 
        </DataArray>
        <DataArray type="Float64" Name="v">
          0.00000000e+00 1.70177358e+00 3.54208860e+00 5.01170467e+00 0.00000000e+00 2.35899958e+00 4.30336524e+00 6.36298767e+00 0.00000000e+00 2.35467539e+00 4.47666469e+00 6.29431703e+00 0.00000000e+00 2.23223671e+00 3.91500612e+00 6.41214207e+00 
        </DataArray>
        <DataArray type="Float64" Name="p">
          -2.15755642e+03 -3.26258159e+03 -4.36760677e+03 -5.47263194e+03 -2.36616695e+03 -3.45932634e+03 -4.55248572e+03 -5.64564510e+03 -2.57477749e+03 -3.65607108e+03 -4.73736467e+03 -5.81865826e+03 -2.78338802e+03 -3.85281582e+03 -4.92224362e+03 -5.99167142e+03 
        </DataArray>
      </PointData>
    </Piece>
    <Piece NumberOfPoints="16" NumberOfCells="9">
      <Points>
        <DataArray type="Float64" NumberOfComponents="3" format="ascii">
          0.00000000e+00 5.00000000e+00 0.00000000e+00 
8.33333313e-01 5.00000000e+00 0.00000000e+00 
1.66666663e+00 5.00000000e+00 0.00000000e+00 
2.50000000e+00 5.00000000e+00 0.00000000e+00 
0.00000000e+00 5.33333349e+00 0.00000000e+00 
8.33333313e-01 5.33333349e+00 0.00000000e+00 
1.66666663e+00 5.33333349e+00 0.00000000e+00 
2.50000000e+00 5.33333349e+00 0.00000000e+00 
0.00000000e+00 5.66666651e+00 0.00000000e+00 
8.33333313e-01 5.66666651e+00 0.00000000e+00 
1.66666663e+00 5.66666651e+00 0.00000000e+00 
2.50000000e+00 5.66666651e+00 0.00000000e+00 
0.00000000e+00 6.00000000e+00 0.00000000e+00 
8.33333313e-01 6.00000000e+00 0.00000000e+00 
1.66666663e+00 6.00000000e+00 0.00000000e+00 
2.50000000e+00 6.00000000e+00 0.00000000e+00 

        </DataArray>
      </Points>
      <Cells>
        <DataArray type="Int32" Name="connectivity" format="ascii">
0 1 5 4
4 5 9 8
8 9 13 12
1 2 6 5
5 6 10 9
9 10 14 13
2 3 7 6
6 7 11 10
10 11 15 14

        </DataArray>
        <DataArray type="Int32" Name="offsets" format="ascii">
4 8 12 16 20 24 28 32 36 
        </DataArray>
        <DataArray type="UInt8" Name="types" format="ascii">
9 9 9 9 9 9 9 9 9 
        </DataArray>
      </Cells>
      <PointData>
        <DataArray type="Float64" Name="u">
          2.00000000e+02 2.00839454e+02 2.01908956e+02 2.04208762e+02 1.55555556e+02 1.57984452e+02 1.58380858e+02 1.63469407e+02 8.88888889e+01 9.22436295e+01 9.14851241e+01 1.00283676e+02 0.00000000e+00 0.00000000e+00 0.00000000e+00 0.00000000e+00 
        </DataArray>
        <DataArray type="Float64" Name="v">
          0.00000000e+00 2.23223671e+00 3.91500612e+00 6.41214207e+00 0.00000000e+00 9.80474337e-01 2.24783372e+00 4.12622503e+00 0.00000000e+00 1.16691223e+00 1.68372112e+00 4.18642544e+00 0.00000000e+00 0.00000000e+00 0.00000000e+00 0.00000000e+00 
        </DataArray>
        <DataArray type="Float64" Name="p">
          -2.82222569e+03 -3.89319613e+03 -4.96416658e+03 -6.03513702e+03 -2.84949807e+03 -3.94197665e+03 -5.03445524e+03 -6.12693382e+03 -2.87677045e+03 -3.99075717e+03 -5.10474390e+03 -6.21873062e+03 -2.90404283e+03 -4.03953769e+03 -5.17503256e+03 -6.31052742e+03 
        </DataArray>
      </PointData>
    </Piece>
    <Piece NumberOfPoints="16" NumberOfCells="9">
      <Points>
        <DataArray type="Float64" NumberOfComponents="3" format="ascii">
          2.50000000e+00 0.00000000e+00 0.00000000e+00 
3.33333325e+00 0.00000000e+00 0.00000000e+00 
4.16666651e+00 0.00000000e+00 0.00000000e+00 
5.00000000e+00 0.00000000e+00 0.00000000e+00 
2.50000000e+00 3.33333343e-01 0.00000000e+00 
3.33333325e+00 3.33333343e-01 0.00000000e+00 
4.16666651e+00 3.33333343e-01 0.00000000e+00 
5.00000000e+00 3.33333343e-01 0.00000000e+00 
2.50000000e+00 6.66666687e-01 0.00000000e+00 
3.33333325e+00 6.66666687e-01 0.00000000e+00 
4.16666651e+00 6.66666687e-01 0.00000000e+00 
5.00000000e+00 6.66666687e-01 0.00000000e+00 
2.50000000e+00 1.00000000e+00 0.00000000e+00 
3.33333325e+00 1.00000000e+00 0.00000000e+00 
4.16666651e+00 1.00000000e+00 0.00000000e+00 
5.00000000e+00 1.00000000e+00 0.00000000e+00 

        </DataArray>
      </Points>
      <Cells>
        <DataArray type="Int32" Name="connectivity" format="ascii">
0 1 5 4
4 5 9 8
8 9 13 12
1 2 6 5
5 6 10 9
9 10 14 13
2 3 7 6
6 7 11 10
10 11 15 14

        </DataArray>
        <DataArray type="Int32" Name="offsets" format="ascii">
4 8 12 16 20 24 28 32 36 
        </DataArray>
        <DataArray type="UInt8" Name="types" format="ascii">
9 9 9 9 9 9 9 9 9 
        </DataArray>
      </Cells>
      <PointData>
        <DataArray type="Float64" Name="u">
          0.00000000e+00 0.00000000e+00 0.00000000e+00 0.00000000e+00 0.00000000e+00 -2.15476288e+00 -3.86011248e+00 -6.80057257e+00 0.00000000e+00 -3.89668196e+00 -7.13314854e+00 -1.18397869e+01 0.00000000e+00 -5.21892230e+00 -9.46380916e+00 -1.49625606e+01 
        </DataArray>
        <DataArray type="Float64" Name="v">
          0.00000000e+00 0.00000000e+00 0.00000000e+00 0.00000000e+00 0.00000000e+00 6.41599827e-01 6.98449045e-01 4.57662123e-01 0.00000000e+00 1.97352613e+00 1.98268142e+00 1.31735477e+00 0.00000000e+00 4.40599271e+00 4.12131572e+00 2.77153033e+00 
        </DataArray>
        <DataArray type="Float64" Name="p">
          -4.66592681e+03 -4.64569310e+03 -4.62545939e+03 -4.60522569e+03 -4.65689126e+03 -4.63661470e+03 -4.61633814e+03 -4.59606159e+03 -4.64785570e+03 -4.62753630e+03 -4.60721689e+03 -4.58689748e+03 -4.63882015e+03 -4.61845789e+03 -4.59809564e+03 -4.57773338e+03 
        </DataArray>
      </PointData>
    </Piece>
    <Piece NumberOfPoints="16" NumberOfCells="9">
      <Points>
        <DataArray type="Float64" NumberOfComponents="3" format="ascii">
          2.50000000e+00 1.00000000e+00 0.00000000e+00 
3.33333325e+00 1.00000000e+00 0.00000000e+00 
4.16666651e+00 1.00000000e+00 0.00000000e+00 
5.00000000e+00 1.00000000e+00 0.00000000e+00 
2.50000000e+00 1.33333337e+00 0.00000000e+00 
3.33333325e+00 1.33333337e+00 0.00000000e+00 
4.16666651e+00 1.33333337e+00 0.00000000e+00 
5.00000000e+00 1.33333337e+00 0.00000000e+00 
2.50000000e+00 1.66666663e+00 0.00000000e+00 
3.33333325e+00 1.66666663e+00 0.00000000e+00 
4.16666651e+00 1.66666663e+00 0.00000000e+00 
5.00000000e+00 1.66666663e+00 0.00000000e+00 
2.50000000e+00 2.00000000e+00 0.00000000e+00 
3.33333325e+00 2.00000000e+00 0.00000000e+00 
4.16666651e+00 2.00000000e+00 0.00000000e+00 
5.00000000e+00 2.00000000e+00 0.00000000e+00 

        </DataArray>
      </Points>
      <Cells>
        <DataArray type="Int32" Name="connectivity" format="ascii">
0 1 5 4
4 5 9 8
8 9 13 12
1 2 6 5
5 6 10 9
9 10 14 13
2 3 7 6
6 7 11 10
10 11 15 14

        </DataArray>
        <DataArray type="Int32" Name="offsets" format="ascii">
4 8 12 16 20 24 28 32 36 
        </DataArray>
        <DataArray type="UInt8" Name="types" format="ascii">
9 9 9 9 9 9 9 9 9 
        </DataArray>
      </Cells>
      <PointData>
        <DataArray type="Float64" Name="u">
          0.00000000e+00 -5.21892230e+00 -9.46380916e+00 -1.49625606e+01 0.00000000e+00 -6.09790836e+00 -1.05681278e+01 -1.59643551e+01 0.00000000e+00 -6.31418662e+00 -1.00211420e+01 -1.42361040e+01 0.00000000e+00 -5.39177206e+00 -7.14627372e+00 -9.03583365e+00 
        </DataArray>
        <DataArray type="Float64" Name="v">
          0.00000000e+00 4.40599271e+00 4.12131572e+00 2.77153033e+00 0.00000000e+00 7.52956019e+00 6.49442321e+00 4.14913923e+00 0.00000000e+00 1.01002709e+01 8.33073835e+00 5.00983252e+00 0.00000000e+00 1.31067054e+01 9.87284666e+00 5.25470824e+00 
        </DataArray>
        <DataArray type="Float64" Name="p">
          -4.62673481e+03 -4.61183243e+03 -4.59693006e+03 -4.58202768e+03 -4.68585400e+03 -4.66009680e+03 -4.63433960e+03 -4.60858240e+03 -4.74497319e+03 -4.70836117e+03 -4.67174915e+03 -4.63513713e+03 -4.80409238e+03 -4.75662554e+03 -4.70915870e+03 -4.66169185e+03 
        </DataArray>
      </PointData>
    </Piece>
    <Piece NumberOfPoints="16" NumberOfCells="9">
      <Points>
        <DataArray type="Float64" NumberOfComponents="3" format="ascii">
          2.50000000e+00 2.00000000e+00 0.00000000e+00 
3.33333325e+00 2.00000000e+00 0.00000000e+00 
4.16666651e+00 2.00000000e+00 0.00000000e+00 
5.00000000e+00 2.00000000e+00 0.00000000e+00 
2.50000000e+00 2.33333325e+00 0.00000000e+00 
3.33333325e+00 2.33333325e+00 0.00000000e+00 
4.16666651e+00 2.33333325e+00 0.00000000e+00 
5.00000000e+00 2.33333325e+00 0.00000000e+00 
2.50000000e+00 2.66666675e+00 0.00000000e+00 
3.33333325e+00 2.66666675e+00 0.00000000e+00 
4.16666651e+00 2.66666675e+00 0.00000000e+00 
5.00000000e+00 2.66666675e+00 0.00000000e+00 
2.50000000e+00 3.00000000e+00 0.00000000e+00 
3.33333325e+00 3.00000000e+00 0.00000000e+00 
4.16666651e+00 3.00000000e+00 0.00000000e+00 
5.00000000e+00 3.00000000e+00 0.00000000e+00 

        </DataArray>
      </Points>
      <Cells>
        <DataArray type="Int32" Name="connectivity" format="ascii">
0 1 5 4
4 5 9 8
8 9 13 12
1 2 6 5
5 6 10 9
9 10 14 13
2 3 7 6
6 7 11 10
10 11 15 14

        </DataArray>
        <DataArray type="Int32" Name="offsets" format="ascii">
4 8 12 16 20 24 28 32 36 
        </DataArray>
        <DataArray type="UInt8" Name="types" format="ascii">
9 9 9 9 9 9 9 9 9 
        </DataArray>
      </Cells>
      <PointData>
        <DataArray type="Float64" Name="u">
          0.00000000e+00 -5.39177206e+00 -7.14627372e+00 -9.03583365e+00 0.00000000e+00 -2.32237723e+00 -1.28235615e+00 1.82603959e+00 0.00000000e+00 7.43270803e+00 1.10778769e+01 1.92707577e+01 0.00000000e+00 3.59561143e+01 3.62363502e+01 4.65811202e+01 
        </DataArray>
        <DataArray type="Float64" Name="v">
          0.00000000e+00 1.31067054e+01 9.87284666e+00 5.25470824e+00 0.00000000e+00 1.51770073e+01 9.32918576e+00 3.95247052e+00 0.00000000e+00 1.36098048e+01 8.42325025e+00 2.98158054e+00 0.00000000e+00 5.99577477e+00 4.38376715e+00 2.72046719e+00 
        </DataArray>
        <DataArray type="Float64" Name="p">
          -4.78248908e+03 -4.76487735e+03 -4.74726561e+03 -4.72965388e+03 -5.00626597e+03 -4.88189386e+03 -4.75752175e+03 -4.63314964e+03 -5.23004286e+03 -4.99891037e+03 -4.76777788e+03 -4.53664540e+03 -5.45381975e+03 -5.11592688e+03 -4.77803402e+03 -4.44014115e+03 
        </DataArray>
      </PointData>
    </Piece>
    <Piece NumberOfPoints="16" NumberOfCells="9">
      <Points>
        <DataArray type="Float64" NumberOfComponents="3" format="ascii">
          2.50000000e+00 3.00000000e+00 0.00000000e+00 
3.33333325e+00 3.00000000e+00 0.00000000e+00 
4.16666651e+00 3.00000000e+00 0.00000000e+00 
5.00000000e+00 3.00000000e+00 0.00000000e+00 
2.50000000e+00 3.33333325e+00 0.00000000e+00 
3.33333325e+00 3.33333325e+00 0.00000000e+00 
4.16666651e+00 3.33333325e+00 0.00000000e+00 
5.00000000e+00 3.33333325e+00 0.00000000e+00 
2.50000000e+00 3.66666675e+00 0.00000000e+00 
3.33333325e+00 3.66666675e+00 0.00000000e+00 
4.16666651e+00 3.66666675e+00 0.00000000e+00 
5.00000000e+00 3.66666675e+00 0.00000000e+00 
2.50000000e+00 4.00000000e+00 0.00000000e+00 
3.33333325e+00 4.00000000e+00 0.00000000e+00 
4.16666651e+00 4.00000000e+00 0.00000000e+00 
5.00000000e+00 4.00000000e+00 0.00000000e+00 

        </DataArray>
      </Points>
      <Cells>
        <DataArray type="Int32" Name="connectivity" format="ascii">
0 1 5 4
4 5 9 8
8 9 13 12
1 2 6 5
5 6 10 9
9 10 14 13
2 3 7 6
6 7 11 10
10 11 15 14

        </DataArray>
        <DataArray type="Int32" Name="offsets" format="ascii">
4 8 12 16 20 24 28 32 36 
        </DataArray>
        <DataArray type="UInt8" Name="types" format="ascii">
9 9 9 9 9 9 9 9 9 
        </DataArray>
      </Cells>
      <PointData>
        <DataArray type="Float64" Name="u">
          0.00000000e+00 3.59561143e+01 3.62363502e+01 4.65811202e+01 8.12754201e+01 8.28110870e+01 8.09215147e+01 8.01893315e+01 1.47951276e+02 1.40215577e+02 1.34266134e+02 1.25375323e+02 1.93795018e+02 1.85261247e+02 1.79591505e+02 1.67783631e+02 
        </DataArray>
        <DataArray type="Float64" Name="v">
          0.00000000e+00 5.99577477e+00 4.38376715e+00 2.72046719e+00 1.39775911e+00 2.13534268e-01 3.50528732e+00 6.63849510e+00 2.90824670e+00 4.00134169e-01 2.60138975e+00 7.75719901e+00 5.01170467e+00 4.58611277e+00 7.71040584e+00 1.21243891e+01 
        </DataArray>
        <DataArray type="Float64" Name="p">
          -5.48797195e+03 -5.06217276e+03 -4.63637357e+03 -4.21057438e+03 -5.25183966e+03 -4.99163996e+03 -4.73144025e+03 -4.47124055e+03 -5.01570738e+03 -4.92110715e+03 -4.82650693e+03 -4.73190671e+03 -4.77957509e+03 -4.85057435e+03 -4.92157361e+03 -4.99257287e+03 
        </DataArray>
      </PointData>
    </Piece>
    <Piece NumberOfPoints="16" NumberOfCells="9">
      <Points>
        <DataArray type="Float64" NumberOfComponents="3" format="ascii">
          2.50000000e+00 4.00000000e+00 0.00000000e+00 
3.33333325e+00 4.00000000e+00 0.00000000e+00 
4.16666651e+00 4.00000000e+00 0.00000000e+00 
5.00000000e+00 4.00000000e+00 0.00000000e+00 
2.50000000e+00 4.33333349e+00 0.00000000e+00 
3.33333325e+00 4.33333349e+00 0.00000000e+00 
4.16666651e+00 4.33333349e+00 0.00000000e+00 
5.00000000e+00 4.33333349e+00 0.00000000e+00 
2.50000000e+00 4.66666651e+00 0.00000000e+00 
3.33333325e+00 4.66666651e+00 0.00000000e+00 
4.16666651e+00 4.66666651e+00 0.00000000e+00 
5.00000000e+00 4.66666651e+00 0.00000000e+00 
2.50000000e+00 5.00000000e+00 0.00000000e+00 
3.33333325e+00 5.00000000e+00 0.00000000e+00 
4.16666651e+00 5.00000000e+00 0.00000000e+00 
5.00000000e+00 5.00000000e+00 0.00000000e+00 

        </DataArray>
      </Points>
      <Cells>
        <DataArray type="Int32" Name="connectivity" format="ascii">
0 1 5 4
4 5 9 8
8 9 13 12
1 2 6 5
5 6 10 9
9 10 14 13
2 3 7 6
6 7 11 10
10 11 15 14

        </DataArray>
        <DataArray type="Int32" Name="offsets" format="ascii">
4 8 12 16 20 24 28 32 36 
        </DataArray>
        <DataArray type="UInt8" Name="types" format="ascii">
9 9 9 9 9 9 9 9 9 
        </DataArray>
      </Cells>
      <PointData>
        <DataArray type="Float64" Name="u">
          1.93795018e+02 1.85261247e+02 1.79591505e+02 1.67783631e+02 2.19035764e+02 2.10987724e+02 2.07081897e+02 1.96587329e+02 2.22648604e+02 2.16224759e+02 2.15176606e+02 2.07693490e+02 2.04208762e+02 1.99582698e+02 2.02780658e+02 1.98585314e+02 
        </DataArray>
        <DataArray type="Float64" Name="v">
          5.01170467e+00 4.58611277e+00 7.71040584e+00 1.21243891e+01 6.36298767e+00 9.14247447e+00 1.19224324e+01 1.55636314e+01 6.29431703e+00 9.82087838e+00 1.39888122e+01 1.79123010e+01 6.41214207e+00 1.27804174e+01 1.60985244e+01 1.85148752e+01 
        </DataArray>
        <DataArray type="Float64" Name="p">
          -4.68214762e+03 -4.83733230e+03 -4.99251697e+03 -5.14770164e+03 -4.95486598e+03 -5.14836112e+03 -5.34185626e+03 -5.53535139e+03 -5.22758434e+03 -5.45938994e+03 -5.69119554e+03 -5.92300114e+03 -5.50030270e+03 -5.77041877e+03 -6.04053483e+03 -6.31065090e+03 
        </DataArray>
      </PointData>
    </Piece>
    <Piece NumberOfPoints="16" NumberOfCells="9">
      <Points>
        <DataArray type="Float64" NumberOfComponents="3" format="ascii">
          2.50000000e+00 5.00000000e+00 0.00000000e+00 
3.33333325e+00 5.00000000e+00 0.00000000e+00 
4.16666651e+00 5.00000000e+00 0.00000000e+00 
5.00000000e+00 5.00000000e+00 0.00000000e+00 
2.50000000e+00 5.33333349e+00 0.00000000e+00 
3.33333325e+00 5.33333349e+00 0.00000000e+00 
4.16666651e+00 5.33333349e+00 0.00000000e+00 
5.00000000e+00 5.33333349e+00 0.00000000e+00 
2.50000000e+00 5.66666651e+00 0.00000000e+00 
3.33333325e+00 5.66666651e+00 0.00000000e+00 
4.16666651e+00 5.66666651e+00 0.00000000e+00 
5.00000000e+00 5.66666651e+00 0.00000000e+00 
2.50000000e+00 6.00000000e+00 0.00000000e+00 
3.33333325e+00 6.00000000e+00 0.00000000e+00 
4.16666651e+00 6.00000000e+00 0.00000000e+00 
5.00000000e+00 6.00000000e+00 0.00000000e+00 

        </DataArray>
      </Points>
      <Cells>
        <DataArray type="Int32" Name="connectivity" format="ascii">
0 1 5 4
4 5 9 8
8 9 13 12
1 2 6 5
5 6 10 9
9 10 14 13
2 3 7 6
6 7 11 10
10 11 15 14

        </DataArray>
        <DataArray type="Int32" Name="offsets" format="ascii">
4 8 12 16 20 24 28 32 36 
        </DataArray>
        <DataArray type="UInt8" Name="types" format="ascii">
9 9 9 9 9 9 9 9 9 
        </DataArray>
      </Cells>
      <PointData>
        <DataArray type="Float64" Name="u">
          2.04208762e+02 1.99582698e+02 2.02780658e+02 1.98585314e+02 1.63469407e+02 1.63035762e+02 1.68828757e+02 1.71633117e+02 1.00283676e+02 1.07907904e+02 1.19075334e+02 1.30681007e+02 0.00000000e+00 5.30123475e+01 6.47057414e+01 8.84534434e+01 
        </DataArray>
        <DataArray type="Float64" Name="v">
          6.41214207e+00 1.27804174e+01 1.60985244e+01 1.85148752e+01 4.12622503e+00 1.26079734e+01 1.57065153e+01 1.56378672e+01 4.18642544e+00 1.24613435e+01 1.40165996e+01 1.35334187e+01 0.00000000e+00 1.04258563e+00 6.03005817e+00 1.09406632e+01 
        </DataArray>
        <DataArray type="Float64" Name="p">
          -5.67077453e+03 -5.89694400e+03 -6.12311347e+03 -6.34928294e+03 -6.29372846e+03 -6.26365665e+03 -6.23358484e+03 -6.20351303e+03 -6.91668238e+03 -6.63036929e+03 -6.34405620e+03 -6.05774311e+03 -7.53963631e+03 -6.99708194e+03 -6.45452757e+03 -5.91197320e+03 
        </DataArray>
      </PointData>
    </Piece>
    <Piece NumberOfPoints="16" NumberOfCells="9">
      <Points>
        <DataArray type="Float64" NumberOfComponents="3" format="ascii">
          2.50000000e+00 6.00000000e+00 0.00000000e+00 
3.33333325e+00 6.00000000e+00 0.00000000e+00 
4.16666651e+00 6.00000000e+00 0.00000000e+00 
5.00000000e+00 6.00000000e+00 0.00000000e+00 
2.50000000e+00 6.33333349e+00 0.00000000e+00 
3.33333325e+00 6.33333349e+00 0.00000000e+00 
4.16666651e+00 6.33333349e+00 0.00000000e+00 
5.00000000e+00 6.33333349e+00 0.00000000e+00 
2.50000000e+00 6.66666651e+00 0.00000000e+00 
3.33333325e+00 6.66666651e+00 0.00000000e+00 
4.16666651e+00 6.66666651e+00 0.00000000e+00 
5.00000000e+00 6.66666651e+00 0.00000000e+00 
2.50000000e+00 7.00000000e+00 0.00000000e+00 
3.33333325e+00 7.00000000e+00 0.00000000e+00 
4.16666651e+00 7.00000000e+00 0.00000000e+00 
5.00000000e+00 7.00000000e+00 0.00000000e+00 

        </DataArray>
      </Points>
      <Cells>
        <DataArray type="Int32" Name="connectivity" format="ascii">
0 1 5 4
4 5 9 8
8 9 13 12
1 2 6 5
5 6 10 9
9 10 14 13
2 3 7 6
6 7 11 10
10 11 15 14

        </DataArray>
        <DataArray type="Int32" Name="offsets" format="ascii">
4 8 12 16 20 24 28 32 36 
        </DataArray>
        <DataArray type="UInt8" Name="types" format="ascii">
9 9 9 9 9 9 9 9 9 
        </DataArray>
      </Cells>
      <PointData>
        <DataArray type="Float64" Name="u">
          0.00000000e+00 5.30123475e+01 6.47057414e+01 8.84534434e+01 0.00000000e+00 1.41294622e+01 2.64523141e+01 4.84037136e+01 0.00000000e+00 2.04138768e-02 6.56612732e+00 1.99278160e+01 0.00000000e+00 -4.82611693e+00 -3.58496173e+00 -2.83716261e-01 
        </DataArray>
        <DataArray type="Float64" Name="v">
          0.00000000e+00 1.04258563e+00 6.03005817e+00 1.09406632e+01 0.00000000e+00 -1.23001658e+01 -3.80735555e+00 6.31085180e+00 0.00000000e+00 -1.66339600e+01 -8.26348042e+00 1.71254571e+00 0.00000000e+00 -1.55147172e+01 -1.16198136e+01 -3.70353938e+00 
        </DataArray>
        <DataArray type="Float64" Name="p">
          -7.39308321e+03 -6.94238980e+03 -6.49169638e+03 -6.04100296e+03 -7.10982691e+03 -6.81436579e+03 -6.51890466e+03 -6.22344354e+03 -6.82657060e+03 -6.68634177e+03 -6.54611295e+03 -6.40588412e+03 -6.54331429e+03 -6.55831776e+03 -6.57332123e+03 -6.58832470e+03 
        </DataArray>
      </PointData>
    </Piece>
    <Piece NumberOfPoints="16" NumberOfCells="9">
      <Points>
        <DataArray type="Float64" NumberOfComponents="3" format="ascii">
          2.50000000e+00 7.00000000e+00 0.00000000e+00 
3.33333325e+00 7.00000000e+00 0.00000000e+00 
4.16666651e+00 7.00000000e+00 0.00000000e+00 
5.00000000e+00 7.00000000e+00 0.00000000e+00 
2.50000000e+00 7.33333349e+00 0.00000000e+00 
3.33333325e+00 7.33333349e+00 0.00000000e+00 
4.16666651e+00 7.33333349e+00 0.00000000e+00 
5.00000000e+00 7.33333349e+00 0.00000000e+00 
2.50000000e+00 7.66666651e+00 0.00000000e+00 
3.33333325e+00 7.66666651e+00 0.00000000e+00 
4.16666651e+00 7.66666651e+00 0.00000000e+00 
5.00000000e+00 7.66666651e+00 0.00000000e+00 
2.50000000e+00 8.00000000e+00 0.00000000e+00 
3.33333325e+00 8.00000000e+00 0.00000000e+00 
4.16666651e+00 8.00000000e+00 0.00000000e+00 
5.00000000e+00 8.00000000e+00 0.00000000e+00 

        </DataArray>
      </Points>
      <Cells>
        <DataArray type="Int32" Name="connectivity" format="ascii">
0 1 5 4
4 5 9 8
8 9 13 12
1 2 6 5
5 6 10 9
9 10 14 13
2 3 7 6
6 7 11 10
10 11 15 14

        </DataArray>
        <DataArray type="Int32" Name="offsets" format="ascii">
4 8 12 16 20 24 28 32 36 
        </DataArray>
        <DataArray type="UInt8" Name="types" format="ascii">
9 9 9 9 9 9 9 9 9 
        </DataArray>
      </Cells>
      <PointData>
        <DataArray type="Float64" Name="u">
          0.00000000e+00 -4.82611693e+00 -3.58496173e+00 -2.83716261e-01 0.00000000e+00 -6.92791615e+00 -9.71417024e+00 -1.22123119e+01 0.00000000e+00 -7.45225931e+00 -1.23788593e+01 -1.85320825e+01 0.00000000e+00 -6.88157649e+00 -1.22556033e+01 -1.99141029e+01 
        </DataArray>
        <DataArray type="Float64" Name="v">
          0.00000000e+00 -1.55147172e+01 -1.16198136e+01 -3.70353938e+00 0.00000000e+00 -1.27226049e+01 -1.09728370e+01 -5.62677680e+00 0.00000000e+00 -9.84740575e+00 -9.04234449e+00 -5.60415139e+00 0.00000000e+00 -5.99510009e+00 -5.96392981e+00 -4.25764113e+00 
        </DataArray>
        <DataArray type="Float64" Name="p">
          -6.58491724e+03 -6.54769947e+03 -6.51048171e+03 -6.47326394e+03 -6.51459070e+03 -6.47976367e+03 -6.44493665e+03 -6.41010962e+03 -6.44426416e+03 -6.41182787e+03 -6.37939159e+03 -6.34695530e+03 -6.37393762e+03 -6.34389207e+03 -6.31384653e+03 -6.28380098e+03 
        </DataArray>
      </PointData>
    </Piece>
    <Piece NumberOfPoints="16" NumberOfCells="9">
      <Points>
        <DataArray type="Float64" NumberOfComponents="3" format="ascii">
          2.50000000e+00 8.00000000e+00 0.00000000e+00 
3.33333325e+00 8.00000000e+00 0.00000000e+00 
4.16666651e+00 8.00000000e+00 0.00000000e+00 
5.00000000e+00 8.00000000e+00 0.00000000e+00 
2.50000000e+00 8.33333302e+00 0.00000000e+00 
3.33333325e+00 8.33333302e+00 0.00000000e+00 
4.16666651e+00 8.33333302e+00 0.00000000e+00 
5.00000000e+00 8.33333302e+00 0.00000000e+00 
2.50000000e+00 8.66666698e+00 0.00000000e+00 
3.33333325e+00 8.66666698e+00 0.00000000e+00 
4.16666651e+00 8.66666698e+00 0.00000000e+00 
5.00000000e+00 8.66666698e+00 0.00000000e+00 
2.50000000e+00 9.00000000e+00 0.00000000e+00 
3.33333325e+00 9.00000000e+00 0.00000000e+00 
4.16666651e+00 9.00000000e+00 0.00000000e+00 
5.00000000e+00 9.00000000e+00 0.00000000e+00 

        </DataArray>
      </Points>
      <Cells>
        <DataArray type="Int32" Name="connectivity" format="ascii">
0 1 5 4
4 5 9 8
8 9 13 12
1 2 6 5
5 6 10 9
9 10 14 13
2 3 7 6
6 7 11 10
10 11 15 14

        </DataArray>
        <DataArray type="Int32" Name="offsets" format="ascii">
4 8 12 16 20 24 28 32 36 
        </DataArray>
        <DataArray type="UInt8" Name="types" format="ascii">
9 9 9 9 9 9 9 9 9 
        </DataArray>
      </Cells>
      <PointData>
        <DataArray type="Float64" Name="u">
          0.00000000e+00 -6.88157649e+00 -1.22556033e+01 -1.99141029e+01 0.00000000e+00 -5.39480859e+00 -9.75478085e+00 -1.69247410e+01 0.00000000e+00 -3.07118085e+00 -5.43893032e+00 -9.88283374e+00 0.00000000e+00 0.00000000e+00 0.00000000e+00 0.00000000e+00 
        </DataArray>
        <DataArray type="Float64" Name="v">
          0.00000000e+00 -5.99510009e+00 -5.96392981e+00 -4.25764113e+00 0.00000000e+00 -2.73746543e+00 -2.82538695e+00 -2.19903308e+00 0.00000000e+00 -9.32912839e-01 -1.00697079e+00 -8.78631843e-01 0.00000000e+00 0.00000000e+00 0.00000000e+00 0.00000000e+00 
        </DataArray>
        <DataArray type="Float64" Name="p">
          -6.38626100e+03 -6.34722878e+03 -6.30819655e+03 -6.26916433e+03 -6.39592840e+03 -6.35823920e+03 -6.32055000e+03 -6.28286080e+03 -6.40559580e+03 -6.36924962e+03 -6.33290345e+03 -6.29655728e+03 -6.41526320e+03 -6.38026005e+03 -6.34525690e+03 -6.31025375e+03 
        </DataArray>
      </PointData>
    </Piece>
    <Piece NumberOfPoints="16" NumberOfCells="9">
      <Points>
        <DataArray type="Float64" NumberOfComponents="3" format="ascii">
          5.00000000e+00 0.00000000e+00 0.00000000e+00 
5.83333349e+00 0.00000000e+00 0.00000000e+00 
6.66666651e+00 0.00000000e+00 0.00000000e+00 
7.50000000e+00 0.00000000e+00 0.00000000e+00 
5.00000000e+00 3.33333343e-01 0.00000000e+00 
5.83333349e+00 3.33333343e-01 0.00000000e+00 
6.66666651e+00 3.33333343e-01 0.00000000e+00 
7.50000000e+00 3.33333343e-01 0.00000000e+00 
5.00000000e+00 6.66666687e-01 0.00000000e+00 
5.83333349e+00 6.66666687e-01 0.00000000e+00 
6.66666651e+00 6.66666687e-01 0.00000000e+00 
7.50000000e+00 6.66666687e-01 0.00000000e+00 
5.00000000e+00 1.00000000e+00 0.00000000e+00 
5.83333349e+00 1.00000000e+00 0.00000000e+00 
6.66666651e+00 1.00000000e+00 0.00000000e+00 
7.50000000e+00 1.00000000e+00 0.00000000e+00 

        </DataArray>
      </Points>
      <Cells>
        <DataArray type="Int32" Name="connectivity" format="ascii">
0 1 5 4
4 5 9 8
8 9 13 12
1 2 6 5
5 6 10 9
9 10 14 13
2 3 7 6
6 7 11 10
10 11 15 14

        </DataArray>
        <DataArray type="Int32" Name="offsets" format="ascii">
4 8 12 16 20 24 28 32 36 
        </DataArray>
        <DataArray type="UInt8" Name="types" format="ascii">
9 9 9 9 9 9 9 9 9 
        </DataArray>
      </Cells>
      <PointData>
        <DataArray type="Float64" Name="u">