<?xml version="1.0"?>
<VTKFile type="UnstructuredGrid" version="0.1" byte_order="LittleEndian">
  <UnstructuredGrid>
    <Piece NumberOfPoints="16" NumberOfCells="9">
      <Points>
        <DataArray type="Float64" NumberOfComponents="3" format="ascii">
          0.00000000e+00 3.00000000e+00 0.00000000e+00 
8.33333313e-01 3.00000000e+00 0.00000000e+00 
1.66666663e+00 3.00000000e+00 0.00000000e+00 
2.50000000e+00 3.00000000e+00 0.00000000e+00 
0.00000000e+00 3.33333325e+00 0.00000000e+00 
8.33333313e-01 3.33333325e+00 0.00000000e+00 
1.66666663e+00 3.33333325e+00 0.00000000e+00 
2.50000000e+00 3.33333325e+00 0.00000000e+00 
0.00000000e+00 3.66666675e+00 0.00000000e+00 
8.33333313e-01 3.66666675e+00 0.00000000e+00 
1.66666663e+00 3.66666675e+00 0.00000000e+00 
2.50000000e+00 3.66666675e+00 0.00000000e+00 
0.00000000e+00 4.00000000e+00 0.00000000e+00 
8.33333313e-01 4.00000000e+00 0.00000000e+00 
1.66666663e+00 4.00000000e+00 0.00000000e+00 
2.50000000e+00 4.00000000e+00 0.00000000e+00 

        </DataArray>
      </Points>
      <Cells>
        <DataArray type="Int32" Name="connectivity" format="ascii">
0 1 5 4
4 5 9 8
8 9 13 12
1 2 6 5
5 6 10 9
9 10 14 13
2 3 7 6
6 7 11 10
10 11 15 14

        </DataArray>
        <DataArray type="Int32" Name="offsets" format="ascii">
4 8 12 16 20 24 28 32 36 
        </DataArray>
        <DataArray type="UInt8" Name="types" format="ascii">
9 9 9 9 9 9 9 9 9 
        </DataArray>
      </Cells>
      <PointData>
        <DataArray type="Float64" Name="u">
          0.00000000e+00 0.00000000e+00 0.00000000e+00 0.00000000e+00 8.88888889e+01 9.18924977e+01 9.12817337e+01 9.93442581e+01 1.55555556e+02 1.57696314e+02 1.58223641e+02 1.62781566e+02 2.00000000e+02 2.00612065e+02 2.01816957e+02 2.03635283e+02 
        </DataArray>
        <DataArray type="Float64" Name="v">
          0.00000000e+00 0.00000000e+00 0.00000000e+00 0.00000000e+00 0.00000000e+00 -1.03846654e+00 -1.47690661e+00 -4.00555098e+00 0.00000000e+00 -9.12874488e-01 -2.05519387e+00 -3.89427823e+00 0.00000000e+00 -2.02870008e+00 -3.55202719e+00 -5.92958738e+00 
        </DataArray>
        <DataArray type="Float64" Name="p">
          -2.52745304e+03 -3.76113178e+03 -4.99481052e+03 -6.22848926e+03 -2.50682834e+03 -3.71775713e+03 -4.92868591e+03 -6.13961469e+03 -2.48620365e+03 -3.67438247e+03 -4.86256129e+03 -6.05074012e+03 -2.46557896e+03 -3.63100782e+03 -4.79643668e+03 -5.96186554e+03 
        </DataArray>
      </PointData>
    </Piece>
    <Piece NumberOfPoints="16" NumberOfCells="9">
      <Points>
        <DataArray type="Float64" NumberOfComponents="3" format="ascii">
          0.00000000e+00 4.00000000e+00 0.00000000e+00 
8.33333313e-01 4.00000000e+00 0.00000000e+00 
1.66666663e+00 4.00000000e+00 0.00000000e+00 
2.50000000e+00 4.00000000e+00 0.00000000e+00 
0.00000000e+00 4.33333349e+00 0.00000000e+00 
8.33333313e-01 4.33333349e+00 0.00000000e+00 
1.66666663e+00 4.33333349e+00 0.00000000e+00 
2.50000000e+00 4.33333349e+00 0.00000000e+00 
0.00000000e+00 4.66666651e+00 0.00000000e+00 
8.33333313e-01 4.66666651e+00 0.00000000e+00 
1.66666663e+00 4.66666651e+00 0.00000000e+00 
2.50000000e+00 4.66666651e+00 0.00000000e+00 
0.00000000e+00 5.00000000e+00 0.00000000e+00 
8.33333313e-01 5.00000000e+00 0.00000000e+00 
1.66666663e+00 5.00000000e+00 0.00000000e+00 
2.50000000e+00 5.00000000e+00 0.00000000e+00 

        </DataArray>
      </Points>
      <Cells>
        <DataArray type="Int32" Name="connectivity" format="ascii">
0 1 5 4
4 5 9 8
8 9 13 12
1 2 6 5
5 6 10 9
9 10 14 13
2 3 7 6
6 7 11 10
10 11 15 14

        </DataArray>
        <DataArray type="Int32" Name="offsets" format="ascii">
4 8 12 16 20 24 28 32 36 
        </DataArray>
        <DataArray type="UInt8" Name="types" format="ascii">
9 9 9 9 9 9 9 9 9 
        </DataArray>
      </Cells>
      <PointData>
        <DataArray type="Float64" Name="u">
          2.00000000e+02 2.00612065e+02 2.01816957e+02 2.03635283e+02 2.22222222e+02 2.21695772e+02 2.22715060e+02 2.22389362e+02 2.22222222e+02 2.20626615e+02 2.21522983e+02 2.19097233e+02 2.00000000e+02 1.97641390e+02 1.98644433e+02 1.94189673e+02 
        </DataArray>
        <DataArray type="Float64" Name="v">
          0.00000000e+00 -2.02870008e+00 -3.55202719e+00 -5.92958738e+00 0.00000000e+00 -2.10487422e+00 -4.03779842e+00 -5.71187620e+00 0.00000000e+00 -2.10116716e+00 -3.85070888e+00 -5.78330632e+00 0.00000000e+00 -1.46815295e+00 -3.13874425e+00 -4.43164100e+00 
        </DataArray>
        <DataArray type="Float64" Name="p">
          -2.42738425e+03 -3.59165689e+03 -4.75592953e+03 -5.92020218e+03 -2.24322105e+03 -3.41448263e+03 -4.58574422e+03 -5.75700580e+03 -2.05905785e+03 -3.23730837e+03 -4.41555890e+03 -5.59380943e+03 -1.87489464e+03 -3.06013411e+03 -4.24537359e+03 -5.43061306e+03 
        </DataArray>
      </PointData>
    </Piece>
    <Piece NumberOfPoints="16" NumberOfCells="9">
      <Points>
        <DataArray type="Float64" NumberOfComponents="3" format="ascii">
          0.00000000e+00 5.00000000e+00 0.00000000e+00 
8.33333313e-01 5.00000000e+00 0.00000000e+00 
1.66666663e+00 5.00000000e+00 0.00000000e+00 
2.50000000e+00 5.00000000e+00 0.00000000e+00 
0.00000000e+00 5.33333349e+00 0.00000000e+00 
8.33333313e-01 5.33333349e+00 0.00000000e+00 
1.66666663e+00 5.33333349e+00 0.00000000e+00 
2.50000000e+00 5.33333349e+00 0.00000000e+00 
0.00000000e+00 5.66666651e+00 0.00000000e+00 
8.33333313e-01 5.66666651e+00 0.00000000e+00 
1.66666663e+00 5.66666651e+00 0.00000000e+00 
2.50000000e+00 5.66666651e+00 0.00000000e+00 
0.00000000e+00 6.00000000e+00 0.00000000e+00 
8.33333313e-01 6.00000000e+00 0.00000000e+00 
1.66666663e+00 6.00000000e+00 0.00000000e+00 
2.50000000e+00 6.00000000e+00 0.00000000e+00 

        </DataArray>
      </Points>
      <Cells>
        <DataArray type="Int32" Name="connectivity" format="ascii">
0 1 5 4
4 5 9 8
8 9 13 12
1 2 6 5
5 6 10 9
9 10 14 13
2 3 7 6
6 7 11 10
10 11 15 14

        </DataArray>
        <DataArray type="Int32" Name="offsets" format="ascii">
4 8 12 16 20 24 28 32 36 
        </DataArray>
        <DataArray type="UInt8" Name="types" format="ascii">
9 9 9 9 9 9 9 9 9 
        </DataArray>
      </Cells>
      <PointData>
        <DataArray type="Float64" Name="u">
          2.00000000e+02 1.97641390e+02 1.98644433e+02 1.94189673e+02 1.55555556e+02 1.53171975e+02 1.54036339e+02 1.48706776e+02 8.88888889e+01 8.71332959e+01 8.75272102e+01 8.24641671e+01 0.00000000e+00 0.00000000e+00 0.00000000e+00 0.00000000e+00 
        </DataArray>
        <DataArray type="Float64" Name="v">
          0.00000000e+00 -1.46815295e+00 -3.13874425e+00 -4.43164100e+00 0.00000000e+00 -5.42631794e-01 -1.55460437e+00 -2.50364256e+00 0.00000000e+00 -5.42943314e-01 -1.38389206e+00 -9.96896424e-01 0.00000000e+00 0.00000000e+00 0.00000000e+00 0.00000000e+00 
        </DataArray>
        <DataArray type="Float64" Name="p">
          -1.87698079e+03 -3.04336463e+03 -4.20974846e+03 -5.37613230e+03 -1.84390596e+03 -3.00703917e+03 -4.17017238e+03 -5.33330560e+03 -1.81083112e+03 -2.97071371e+03 -4.13059631e+03 -5.29047890e+03 -1.77775628e+03 -2.93438826e+03 -4.09102023e+03 -5.24765220e+03 
        </DataArray>
      </PointData>
    </Piece>
    <Piece NumberOfPoints="16" NumberOfCells="9">
      <Points>
        <DataArray type="Float64" NumberOfComponents="3" format="ascii">
          2.50000000e+00 0.00000000e+00 0.00000000e+00 
3.33333325e+00 0.00000000e+00 0.00000000e+00 
4.16666651e+00 0.00000000e+00 0.00000000e+00 
5.00000000e+00 0.00000000e+00 0.00000000e+00 
2.50000000e+00 3.33333343e-01 0.00000000e+00 
3.33333325e+00 3.33333343e-01 0.00000000e+00 
4.16666651e+00 3.33333343e-01 0.00000000e+00 
5.00000000e+00 3.33333343e-01 0.00000000e+00 
2.50000000e+00 6.66666687e-01 0.00000000e+00 
3.33333325e+00 6.66666687e-01 0.00000000e+00 
4.16666651e+00 6.66666687e-01 0.00000000e+00 
5.00000000e+00 6.66666687e-01 0.00000000e+00 
2.50000000e+00 1.00000000e+00 0.00000000e+00 
3.33333325e+00 1.00000000e+00 0.00000000e+00 
4.16666651e+00 1.00000000e+00 0.00000000e+00 
5.00000000e+00 1.00000000e+00 0.00000000e+00 

        </DataArray>
      </Points>
      <Cells>
        <DataArray type="Int32" Name="connectivity" format="ascii">
0 1 5 4
4 5 9 8
8 9 13 12
1 2 6 5
5 6 10 9
9 10 14 13
2 3 7 6
6 7 11 10
10 11 15 14

        </DataArray>
        <DataArray type="Int32" Name="offsets" format="ascii">
4 8 12 16 20 24 28 32 36 
        </DataArray>
        <DataArray type="UInt8" Name="types" format="ascii">
9 9 9 9 9 9 9 9 9 
        </DataArray>
      </Cells>
      <PointData>
        <DataArray type="Float64" Name="u">
          0.00000000e+00 0.00000000e+00 0.00000000e+00 0.00000000e+00 0.00000000e+00 -3.21757071e+00 -5.56817901e+00 -1.01346779e+01 0.00000000e+00 -5.60035851e+00 -9.91815730e+00 -1.71631328e+01 0.00000000e+00 -7.09827855e+00 -1.23774115e+01 -2.00619563e+01 
        </DataArray>
        <DataArray type="Float64" Name="v">
          0.00000000e+00 0.00000000e+00 0.00000000e+00 0.00000000e+00 0.00000000e+00 9.65518567e-01 1.04503822e+00 8.61431297e-01 0.00000000e+00 2.82047783e+00 2.89402843e+00 2.15176415e+00 0.00000000e+00 6.15463958e+00 6.04571272e+00 4.18109848e+00 
        </DataArray>
        <DataArray type="Float64" Name="p">
          -6.25307249e+03 -6.20941864e+03 -6.16576480e+03 -6.12211095e+03 -6.24194139e+03 -6.19734939e+03 -6.15275740e+03 -6.10816540e+03 -6.23081029e+03 -6.18528015e+03 -6.13975000e+03 -6.09421985e+03 -6.21967920e+03 -6.17321090e+03 -6.12674260e+03 -6.08027430e+03 
        </DataArray>
      </PointData>
    </Piece>
    <Piece NumberOfPoints="16" NumberOfCells="9">
      <Points>
        <DataArray type="Float64" NumberOfComponents="3" format="ascii">
          2.50000000e+00 1.00000000e+00 0.00000000e+00 
3.33333325e+00 1.00000000e+00 0.00000000e+00 
4.16666651e+00 1.00000000e+00 0.00000000e+00 
5.00000000e+00 1.00000000e+00 0.00000000e+00 
2.50000000e+00 1.33333337e+00 0.00000000e+00 
3.33333325e+00 1.33333337e+00 0.00000000e+00 
4.16666651e+00 1.33333337e+00 0.00000000e+00 
5.00000000e+00 1.33333337e+00 0.00000000e+00 
2.50000000e+00 1.66666663e+00 0.00000000e+00 
3.33333325e+00 1.66666663e+00 0.00000000e+00 
4.16666651e+00 1.66666663e+00 0.00000000e+00 
5.00000000e+00 1.66666663e+00 0.00000000e+00 
2.50000000e+00 2.00000000e+00 0.00000000e+00 
3.33333325e+00 2.00000000e+00 0.00000000e+00 
4.16666651e+00 2.00000000e+00 0.00000000e+00 
5.00000000e+00 2.00000000e+00 0.00000000e+00 

        </DataArray>
      </Points>
      <Cells>
        <DataArray type="Int32" Name="connectivity" format="ascii">
0 1 5 4
4 5 9 8
8 9 13 12
1 2 6 5
5 6 10 9
9 10 14 13
2 3 7 6
6 7 11 10
10 11 15 14

        </DataArray>
        <DataArray type="Int32" Name="offsets" format="ascii">
4 8 12 16 20 24 28 32 36 
        </DataArray>
        <DataArray type="UInt8" Name="types" format="ascii">
9 9 9 9 9 9 9 9 9 
        </DataArray>
      </Cells>
      <PointData>
        <DataArray type="Float64" Name="u">
          0.00000000e+00 -7.09827855e+00 -1.23774115e+01 -2.00619563e+01 0.00000000e+00 -7.65815657e+00 -1.24274354e+01 -1.85745385e+01 0.00000000e+00 -7.09251578e+00 -9.66843709e+00 -1.21508445e+01 0.00000000e+00 -4.89072596e+00 -3.42981322e+00 -1.46096927e-01 
        </DataArray>
        <DataArray type="Float64" Name="v">
          0.00000000e+00 6.15463958e+00 6.04571272e+00 4.18109848e+00 0.00000000e+00 1.00706416e+01 9.11107138e+00 5.47029145e+00 0.00000000e+00 1.29807293e+01 1.10215568e+01 5.45176327e+00 0.00000000e+00 1.57843340e+01 1.16275960e+01 3.50004612e+00 
        </DataArray>
        <DataArray type="Float64" Name="p">
          -6.20639965e+03 -6.16974643e+03 -6.13309320e+03 -6.09643997e+03 -6.28525163e+03 -6.24388831e+03 -6.20252499e+03 -6.16116167e+03 -6.36410362e+03 -6.31803020e+03 -6.27195679e+03 -6.22588337e+03 -6.44295560e+03 -6.39217209e+03 -6.34138858e+03 -6.29060507e+03 
        </DataArray>
      </PointData>
    </Piece>
    <Piece NumberOfPoints="16" NumberOfCells="9">
      <Points>
        <DataArray type="Float64" NumberOfComponents="3" format="ascii">
          2.50000000e+00 2.00000000e+00 0.00000000e+00 
3.33333325e+00 2.00000000e+00 0.00000000e+00 
4.16666651e+00 2.00000000e+00 0.00000000e+00 
5.00000000e+00 2.00000000e+00 0.00000000e+00 
2.50000000e+00 2.33333325e+00 0.00000000e+00 
3.33333325e+00 2.33333325e+00 0.00000000e+00 
4.16666651e+00 2.33333325e+00 0.00000000e+00 
5.00000000e+00 2.33333325e+00 0.00000000e+00 
2.50000000e+00 2.66666675e+00 0.00000000e+00 
3.33333325e+00 2.66666675e+00 0.00000000e+00 
4.16666651e+00 2.66666675e+00 0.00000000e+00 
5.00000000e+00 2.66666675e+00 0.00000000e+00 
2.50000000e+00 3.00000000e+00 0.00000000e+00 
3.33333325e+00 3.00000000e+00 0.00000000e+00 
4.16666651e+00 3.00000000e+00 0.00000000e+00 
5.00000000e+00 3.00000000e+00 0.00000000e+00 

        </DataArray>
      </Points>
      <Cells>
        <DataArray type="Int32" Name="connectivity" format="ascii">
0 1 5 4
4 5 9 8
8 9 13 12
1 2 6 5
5 6 10 9
9 10 14 13
2 3 7 6
6 7 11 10
10 11 15 14

        </DataArray>
        <DataArray type="Int32" Name="offsets" format="ascii">
4 8 12 16 20 24 28 32 36 
        </DataArray>
        <DataArray type="UInt8" Name="types" format="ascii">
9 9 9 9 9 9 9 9 9 
        </DataArray>
      </Cells>
      <PointData>
        <DataArray type="Float64" Name="u">
          0.00000000e+00 -4.89072596e+00 -3.42981322e+00 -1.46096927e-01 0.00000000e+00 1.57766554e-01 6.87037183e+00 1.99936041e+01 0.00000000e+00 1.44959351e+01 2.67215477e+01 4.81437190e+01 0.00000000e+00 5.29307744e+01 6.40402702e+01 8.72940995e+01 
        </DataArray>
        <DataArray type="Float64" Name="v">
          0.00000000e+00 1.57843340e+01 1.16275960e+01 3.50004612e+00 0.00000000e+00 1.68544991e+01 8.29981997e+00 -1.78122582e+00 0.00000000e+00 1.23980935e+01 3.80529184e+00 -6.22126069e+00 0.00000000e+00 -9.90747550e-01 -5.80278190e+00 -1.05075640e+01 
        </DataArray>
        <DataArray type="Float64" Name="p">
          -6.39935852e+03 -6.40292215e+03 -6.40648578e+03 -6.41004941e+03 -6.70746025e+03 -6.54423601e+03 -6.38101178e+03 -6.21778755e+03 -7.01556197e+03 -6.68554988e+03 -6.35553778e+03 -6.02552569e+03 -7.32366370e+03 -6.82686374e+03 -6.33006379e+03 -5.83326383e+03 
        </DataArray>
      </PointData>
    </Piece>
    <Piece NumberOfPoints="16" NumberOfCells="9">
      <Points>
        <DataArray type="Float64" NumberOfComponents="3" format="ascii">
          2.50000000e+00 3.00000000e+00 0.00000000e+00 
3.33333325e+00 3.00000000e+00 0.00000000e+00 
4.16666651e+00 3.00000000e+00 0.00000000e+00 
5.00000000e+00 3.00000000e+00 0.00000000e+00 
2.50000000e+00 3.33333325e+00 0.00000000e+00 
3.33333325e+00 3.33333325e+00 0.00000000e+00 
4.16666651e+00 3.33333325e+00 0.00000000e+00 
5.00000000e+00 3.33333325e+00 0.00000000e+00 
2.50000000e+00 3.66666675e+00 0.00000000e+00 
3.33333325e+00 3.66666675e+00 0.00000000e+00 
4.16666651e+00 3.66666675e+00 0.00000000e+00 
5.00000000e+00 3.66666675e+00 0.00000000e+00 
2.50000000e+00 4.00000000e+00 0.00000000e+00 
3.33333325e+00 4.00000000e+00 0.00000000e+00 
4.16666651e+00 4.00000000e+00 0.00000000e+00 
5.00000000e+00 4.00000000e+00 0.00000000e+00 

        </DataArray>
      </Points>
      <Cells>
        <DataArray type="Int32" Name="connectivity" format="ascii">
0 1 5 4
4 5 9 8
8 9 13 12
1 2 6 5
5 6 10 9
9 10 14 13
2 3 7 6
6 7 11 10
10 11 15 14

        </DataArray>
        <DataArray type="Int32" Name="offsets" format="ascii">
4 8 12 16 20 24 28 32 36 
        </DataArray>
        <DataArray type="UInt8" Name="types" format="ascii">
9 9 9 9 9 9 9 9 9 
        </DataArray>
      </Cells>
      <PointData>
        <DataArray type="Float64" Name="u">
          0.00000000e+00 5.29307744e+01 6.40402702e+01 8.72940995e+01 9.93442581e+01 1.06785089e+02 1.17366671e+02 1.28411273e+02 1.62781566e+02 1.61724847e+02 1.66941004e+02 1.69070003e+02 2.03635283e+02 1.98555562e+02 2.01249946e+02 1.96440071e+02 
        </DataArray>
        <DataArray type="Float64" Name="v">
          0.00000000e+00 -9.90747550e-01 -5.80278190e+00 -1.05075640e+01 -4.00555098e+00 -1.21752567e+01 -1.34182482e+01 -1.26859572e+01 -3.89427823e+00 -1.24412619e+01 -1.52223090e+01 -1.47086431e+01 -5.92958738e+00 -1.22059095e+01 -1.52094925e+01 -1.71784561e+01 
        </DataArray>
        <DataArray type="Float64" Name="p">
          -7.45968514e+03 -6.87029502e+03 -6.28090490e+03 -5.69151479e+03 -6.82405584e+03 -6.50312971e+03 -6.18220357e+03 -5.86127743e+03 -6.18842655e+03 -6.13596439e+03 -6.08350223e+03 -6.03104007e+03 -5.55279726e+03 -5.76879908e+03 -5.98480090e+03 -6.20080271e+03 
        </DataArray>
      </PointData>
    </Piece>
    <Piece NumberOfPoints="16" NumberOfCells="9">
      <Points>
        <DataArray type="Float64" NumberOfComponents="3" format="ascii">
          2.50000000e+00 4.00000000e+00 0.00000000e+00 
3.33333325e+00 4.00000000e+00 0.00000000e+00 
4.16666651e+00 4.00000000e+00 0.00000000e+00 
5.00000000e+00 4.00000000e+00 0.00000000e+00 
2.50000000e+00 4.33333349e+00 0.00000000e+00 
3.33333325e+00 4.33333349e+00 0.00000000e+00 
4.16666651e+00 4.33333349e+00 0.00000000e+00 
5.00000000e+00 4.33333349e+00 0.00000000e+00 
2.50000000e+00 4.66666651e+00 0.00000000e+00 
3.33333325e+00 4.66666651e+00 0.00000000e+00 
4.16666651e+00 4.66666651e+00 0.00000000e+00 
5.00000000e+00 4.66666651e+00 0.00000000e+00 
2.50000000e+00 5.00000000e+00 0.00000000e+00 
3.33333325e+00 5.00000000e+00 0.00000000e+00 
4.16666651e+00 5.00000000e+00 0.00000000e+00 
5.00000000e+00 5.00000000e+00 0.00000000e+00 

        </DataArray>
      </Points>
      <Cells>
        <DataArray type="Int32" Name="connectivity" format="ascii">
0 1 5 4
4 5 9 8
8 9 13 12
1 2 6 5
5 6 10 9
9 10 14 13
2 3 7 6
6 7 11 10
10 11 15 14

        </DataArray>
        <DataArray type="Int32" Name="offsets" format="ascii">
4 8 12 16 20 24 28 32 36 
        </DataArray>
        <DataArray type="UInt8" Name="types" format="ascii">
9 9 9 9 9 9 9 9 9 
        </DataArray>
      </Cells>
      <PointData>
        <DataArray type="Float64" Name="u">
          2.03635283e+02 1.98555562e+02 2.01249946e+02 1.96440071e+02 2.22389362e+02 2.15492820e+02 2.14239918e+02 2.06371499e+02 2.19097233e+02 2.10768752e+02 2.06899309e+02 1.96362083e+02 1.94189673e+02 1.85571492e+02 1.80221695e+02 1.68671192e+02 
        </DataArray>
        <DataArray type="Float64" Name="v">
          -5.92958738e+00 -1.22059095e+01 -1.52094925e+01 -1.71784561e+01 -5.71187620e+00 -9.03549931e+00 -1.29415705e+01 -1.65146918e+01 -5.78330632e+00 -8.21804527e+00 -1.06876516e+01 -1.40762615e+01 -4.43164100e+00 -3.61254397e+00 -6.54220500e+00 -1.08692683e+01 
        </DataArray>
        <DataArray type="Float64" Name="p">
          -5.37209552e+03 -5.64118909e+03 -5.91028265e+03 -6.17937622e+03 -5.12220410e+03 -5.35508181e+03 -5.58795951e+03 -5.82083721e+03 -4.87231269e+03 -5.06897453e+03 -5.26563636e+03 -5.46229820e+03 -4.62242127e+03 -4.78286725e+03 -4.94331322e+03 -5.10375919e+03 
        </DataArray>
      </PointData>
    </Piece>
    <Piece NumberOfPoints="16" NumberOfCells="9">
      <Points>
        <DataArray type="Float64" NumberOfComponents="3" format="ascii">
          2.50000000e+00 5.00000000e+00 0.00000000e+00 
3.33333325e+00 5.00000000e+00 0.00000000e+00 
4.16666651e+00 5.00000000e+00 0.00000000e+00 
5.00000000e+00 5.00000000e+00 0.00000000e+00 
2.50000000e+00 5.33333349e+00 0.00000000e+00 
3.33333325e+00 5.33333349e+00 0.00000000e+00 
4.16666651e+00 5.33333349e+00 0.00000000e+00 
5.00000000e+00 5.33333349e+00 0.00000000e+00 
2.50000000e+00 5.66666651e+00 0.00000000e+00 
3.33333325e+00 5.66666651e+00 0.00000000e+00 
4.16666651e+00 5.66666651e+00 0.00000000e+00 
5.00000000e+00 5.66666651e+00 0.00000000e+00 
2.50000000e+00 6.00000000e+00 0.00000000e+00 
3.33333325e+00 6.00000000e+00 0.00000000e+00 
4.16666651e+00 6.00000000e+00 0.00000000e+00 
5.00000000e+00 6.00000000e+00 0.00000000e+00 

        </DataArray>
      </Points>
      <Cells>
        <DataArray type="Int32" Name="connectivity" format="ascii">
0 1 5 4
4 5 9 8
8 9 13 12
1 2 6 5
5 6 10 9
9 10 14 13
2 3 7 6
6 7 11 10
10 11 15 14

        </DataArray>
        <DataArray type="Int32" Name="offsets" format="ascii">
4 8 12 16 20 24 28 32 36 
        </DataArray>
        <DataArray type="UInt8" Name="types" format="ascii">
9 9 9 9 9 9 9 9 9 
        </DataArray>
      </Cells>
      <PointData>
        <DataArray type="Float64" Name="u">
          1.94189673e+02 1.85571492e+02 1.80221695e+02 1.68671192e+02 1.48706776e+02 1.41216824e+02 1.35803010e+02 1.27577795e+02 8.24641671e+01 8.44729584e+01 8.32573990e+01 8.32774743e+01 0.00000000e+00 3.75945440e+01 3.83706532e+01 4.94736734e+01 
        </DataArray>
        <DataArray type="Float64" Name="v">
          -4.43164100e+00 -3.61254397e+00 -6.54220500e+00 -1.08692683e+01 -2.50364256e+00 4.47365566e-01 -1.70298002e+00 -6.92767573e+00 -9.96896424e-01 5.74397912e-01 -2.65928745e+00 -5.88899217e+00 0.00000000e+00 -5.60271377e+00 -3.95935274e+00 -2.28222486e+00 
        </DataArray>
        <DataArray type="Float64" Name="p">
          -4.73300725e+03 -4.80496573e+03 -4.87692420e+03 -4.94888268e+03 -5.00697672e+03 -4.89662575e+03 -4.78627479e+03 -4.67592382e+03 -5.28094618e+03 -4.98828578e+03 -4.69562537e+03 -4.40296496e+03 -5.55491565e+03 -5.07994580e+03 -4.60497595e+03 -4.13000611e+03 
        </DataArray>
      </PointData>
    </Piece>
    <Piece NumberOfPoints="16" NumberOfCells="9">
      <Points>
        <DataArray type="Float64" NumberOfComponents="3" format="ascii">
          2.50000000e+00 6.00000000e+00 0.00000000e+00 
3.33333325e+00 6.00000000e+00 0.00000000e+00 
4.16666651e+00 6.00000000e+00 0.00000000e+00 
5.00000000e+00 6.00000000e+00 0.00000000e+00 
2.50000000e+00 6.33333349e+00 0.00000000e+00 
3.33333325e+00 6.33333349e+00 0.00000000e+00 
4.16666651e+00 6.33333349e+00 0.00000000e+00 
5.00000000e+00 6.33333349e+00 0.00000000e+00 
2.50000000e+00 6.66666651e+00 0.00000000e+00 
3.33333325e+00 6.66666651e+00 0.00000000e+00 
4.16666651e+00 6.66666651e+00 0.00000000e+00 
5.00000000e+00 6.66666651e+00 0.00000000e+00 
2.50000000e+00 7.00000000e+00 0.00000000e+00 
3.33333325e+00 7.00000000e+00 0.00000000e+00 
4.16666651e+00 7.00000000e+00 0.00000000e+00 
5.00000000e+00 7.00000000e+00 0.00000000e+00 

        </DataArray>
      </Points>
      <Cells>
        <DataArray type="Int32" Name="connectivity" format="ascii">
0 1 5 4
4 5 9 8
8 9 13 12
1 2 6 5
5 6 10 9
9 10 14 13
2 3 7 6
6 7 11 10
10 11 15 14

        </DataArray>
        <DataArray type="Int32" Name="offsets" format="ascii">
4 8 12 16 20 24 28 32 36 
        </DataArray>
        <DataArray type="UInt8" Name="types" format="ascii">
9 9 9 9 9 9 9 9 9 
        </DataArray>
      </Cells>
      <PointData>
        <DataArray type="Float64" Name="u">
          0.00000000e+00 3.75945440e+01 3.83706532e+01 4.94736734e+01 0.00000000e+00 8.26485575e+00 1.24490583e+01 2.13445475e+01 0.00000000e+00 -2.08873536e+00 -6.21141959e-01 3.02713374e+00 0.00000000e+00 -5.45351547e+00 -6.95539861e+00 -8.60846600e+00 
        </DataArray>
        <DataArray type="Float64" Name="v">
          0.00000000e+00 -5.60271377e+00 -3.95935274e+00 -2.28222486e+00 0.00000000e+00 -1.37600582e+01 -8.30921082e+00 -2.62703933e+00 0.00000000e+00 -1.56158875e+01 -9.47222290e+00 -3.73105898e+00 0.00000000e+00 -1.36092429e+01 -1.01706856e+01 -5.22073951e+00 
        </DataArray>
        <DataArray type="Float64" Name="p">
          -5.52019481e+03 -5.13499396e+03 -4.74979311e+03 -4.36459226e+03 -5.26992438e+03 -5.00500618e+03 -4.74008799e+03 -4.47516979e+03 -5.01965395e+03 -4.87501840e+03 -4.73038286e+03 -4.58574732e+03 -4.76938351e+03 -4.74503063e+03 -4.72067774e+03 -4.69632485e+03 
        </DataArray>
      </PointData>
    </Piece>
    <Piece NumberOfPoints="16" NumberOfCells="9">
      <Points>
        <DataArray type="Float64" NumberOfComponents="3" format="ascii">
          2.50000000e+00 7.00000000e+00 0.00000000e+00 
3.33333325e+00 7.00000000e+00 0.00000000e+00 
4.16666651e+00 7.00000000e+00 0.00000000e+00 
5.00000000e+00 7.00000000e+00 0.00000000e+00 
2.50000000e+00 7.33333349e+00 0.00000000e+00 
3.33333325e+00 7.33333349e+00 0.00000000e+00 
4.16666651e+00 7.33333349e+00 0.00000000e+00 
5.00000000e+00 7.33333349e+00 0.00000000e+00 
2.50000000e+00 7.66666651e+00 0.00000000e+00 
3.33333325e+00 7.66666651e+00 0.00000000e+00 
4.16666651e+00 7.66666651e+00 0.00000000e+00 
5.00000000e+00 7.66666651e+00 0.00000000e+00 
2.50000000e+00 8.00000000e+00 0.00000000e+00 
3.33333325e+00 8.00000000e+00 0.00000000e+00 
4.16666651e+00 8.00000000e+00 0.00000000e+00 
5.00000000e+00 8.00000000e+00 0.00000000e+00 

        </DataArray>
      </Points>
      <Cells>
        <DataArray type="Int32" Name="connectivity" format="ascii">
0 1 5 4
4 5 9 8
8 9 13 12
1 2 6 5
5 6 10 9
9 10 14 13
2 3 7 6
6 7 11 10
10 11 15 14

        </DataArray>
        <DataArray type="Int32" Name="offsets" format="ascii">
4 8 12 16 20 24 28 32 36 
        </DataArray>
        <DataArray type="UInt8" Name="types" format="ascii">
9 9 9 9 9 9 9 9 9 
        </DataArray>
      </Cells>
      <PointData>
        <DataArray type="Float64" Name="u">
          0.00000000e+00 -5.45351547e+00 -6.95539861e+00 -8.60846600e+00 0.00000000e+00 -6.53286533e+00 -1.01559289e+01 -1.43686556e+01 0.00000000e+00 -6.38629261e+00 -1.08967123e+01 -1.64579900e+01 0.00000000e+00 -5.51690643e+00 -9.86693543e+00 -1.56207025e+01 
        </DataArray>
        <DataArray type="Float64" Name="v">
          0.00000000e+00 -1.36092429e+01 -1.01706856e+01 -5.22073951e+00 0.00000000e+00 -1.05651394e+01 -8.67020725e+00 -5.09070091e+00 0.00000000e+00 -7.91262920e+00 -6.79571881e+00 -4.26394739e+00 0.00000000e+00 -4.65857302e+00 -4.34142110e+00 -2.87690039e+00 
        </DataArray>
        <DataArray type="Float64" Name="p">
          -4.79380084e+03 -4.73629580e+03 -4.67879076e+03 -4.62128572e+03 -4.72661507e+03 -4.68177383e+03 -4.63693259e+03 -4.59209136e+03 -4.65942930e+03 -4.62725186e+03 -4.59507443e+03 -4.56289699e+03 -4.59224353e+03 -4.57272989e+03 -4.55321626e+03 -4.53370262e+03 
        </DataArray>
      </PointData>
    </Piece>
    <Piece NumberOfPoints="16" NumberOfCells="9">
      <Points>
        <DataArray type="Float64" NumberOfComponents="3" format="ascii">
          2.50000000e+00 8.00000000e+00 0.00000000e+00 
3.33333325e+00 8.00000000e+00 0.00000000e+00 
4.16666651e+00 8.00000000e+00 0.00000000e+00 
5.00000000e+00 8.00000000e+00 0.00000000e+00 
2.50000000e+00 8.33333302e+00 0.00000000e+00 
3.33333325e+00 8.33333302e+00 0.00000000e+00 
4.16666651e+00 8.33333302e+00 0.00000000e+00 
5.00000000e+00 8.33333302e+00 0.00000000e+00 
2.50000000e+00 8.66666698e+00 0.00000000e+00 
3.33333325e+00 8.66666698e+00 0.00000000e+00 
4.16666651e+00 8.66666698e+00 0.00000000e+00 
5.00000000e+00 8.66666698e+00 0.00000000e+00 
2.50000000e+00 9.00000000e+00 0.00000000e+00 
3.33333325e+00 9.00000000e+00 0.00000000e+00 
4.16666651e+00 9.00000000e+00 0.00000000e+00 
5.00000000e+00 9.00000000e+00 0.00000000e+00 

        </DataArray>
      </Points>
      <Cells>
        <DataArray type="Int32" Name="connectivity" format="ascii">
0 1 5 4
4 5 9 8
8 9 13 12
1 2 6 5
5 6 10 9
9 10 14 13
2 3 7 6
6 7 11 10
10 11 15 14

        </DataArray>
        <DataArray type="Int32" Name="offsets" format="ascii">
4 8 12 16 20 24 28 32 36 
        </DataArray>
        <DataArray type="UInt8" Name="types" format="ascii">
9 9 9 9 9 9 9 9 9 
        </DataArray>
      </Cells>
      <PointData>
        <DataArray type="Float64" Name="u">
          0.00000000e+00 -5.51690643e+00 -9.86693543e+00 -1.56207025e+01 0.00000000e+00 -4.15480486e+00 -7.50052184e+00 -1.24729607e+01 0.00000000e+00 -2.31739642e+00 -4.08689468e+00 -7.21754076e+00 0.00000000e+00 0.00000000e+00 0.00000000e+00 0.00000000e+00 
        </DataArray>
        <DataArray type="Float64" Name="v">
          0.00000000e+00 -4.65857302e+00 -4.34142110e+00 -2.87690039e+00 0.00000000e+00 -2.09545104e+00 -2.09721134e+00 -1.37416005e+00 0.00000000e+00 -6.86340385e-01 -7.43453998e-01 -4.80718962e-01 0.00000000e+00 0.00000000e+00 0.00000000e+00 0.00000000e+00 
        </DataArray>
        <DataArray type="Float64" Name="p">
          -4.60549678e+03 -4.57970888e+03 -4.55392098e+03 -4.52813308e+03 -4.61567826e+03 -4.58990168e+03 -4.56412510e+03 -4.53834852e+03 -4.62585974e+03 -4.60009448e+03 -4.57432922e+03 -4.54856396e+03 -4.63604122e+03 -4.61028728e+03 -4.58453334e+03 -4.55877940e+03 
        </DataArray>
      </PointData>
    </Piece>
    <Piece NumberOfPoints="16" NumberOfCells="9">
      <Points>
        <DataArray type="Float64" NumberOfComponents="3" format="ascii">
          5.00000000e+00 0.00000000e+00 0.00000000e+00 
5.83333349e+00 0.00000000e+00 0.00000000e+00 
6.66666651e+00 0.00000000e+00 0.00000000e+00 
7.50000000e+00 0.00000000e+00 0.00000000e+00 
5.00000000e+00 3.33333343e-01 0.00000000e+00 
5.83333349e+00 3.33333343e-01 0.00000000e+00 
6.66666651e+00 3.33333343e-01 0.00000000e+00 
7.50000000e+00 3.33333343e-01 0.00000000e+00 
5.00000000e+00 6.66666687e-01 0.00000000e+00 
5.83333349e+00 6.66666687e-01 0.00000000e+00 
6.66666651e+00 6.66666687e-01 0.00000000e+00 
7.50000000e+00 6.66666687e-01 0.00000000e+00 
5.00000000e+00 1.00000000e+00 0.00000000e+00 
5.83333349e+00 1.00000000e+00 0.00000000e+00 
6.66666651e+00 1.00000000e+00 0.00000000e+00 
7.50000000e+00 1.00000000e+00 0.00000000e+00 

        </DataArray>
      </Points>
      <Cells>
        <DataArray type="Int32" Name="connectivity" format="ascii">
0 1 5 4
4 5 9 8
8 9 13 12
1 2 6 5
5 6 10 9
9 10 14 13
2 3 7 6
6 7 11 10
10 11 15 14

        </DataArray>
        <DataArray type="Int32" Name="offsets" format="ascii">
4 8 12 16 20 24 28 32 36 
        </DataArray>
        <DataArray type="UInt8" Name="types" format="ascii">
9 9 9 9 9 9 9 9 9 
        </DataArray>
      </Cells>
      <PointData>
        <DataArray type="Float64" Name="u">