<?xml version="1.0"?>
<VTKFile type="UnstructuredGrid" version="0.1" byte_order="LittleEndian">
  <UnstructuredGrid>
    <Piece NumberOfPoints="16" NumberOfCells="9">
      <Points>
        <DataArray type="Float64" NumberOfComponents="3" format="ascii">
          0.00000000e+00 3.00000000e+00 0.00000000e+00 
8.33333313e-01 3.00000000e+00 0.00000000e+00 
1.66666663e+00 3.00000000e+00 0.00000000e+00 
2.50000000e+00 3.00000000e+00 0.00000000e+00 
0.00000000e+00 3.33333325e+00 0.00000000e+00 
8.33333313e-01 3.33333325e+00 0.00000000e+00 
1.66666663e+00 3.33333325e+00 0.00000000e+00 
2.50000000e+00 3.33333325e+00 0.00000000e+00 
0.00000000e+00 3.66666675e+00 0.00000000e+00 
8.33333313e-01 3.66666675e+00 0.00000000e+00 
1.66666663e+00 3.66666675e+00 0.00000000e+00 
2.50000000e+00 3.66666675e+00 0.00000000e+00 
0.00000000e+00 4.00000000e+00 0.00000000e+00 
8.33333313e-01 4.00000000e+00 0.00000000e+00 
1.66666663e+00 4.00000000e+00 0.00000000e+00 
2.50000000e+00 4.00000000e+00 0.00000000e+00 

        </DataArray>
      </Points>
      <Cells>
        <DataArray type="Int32" Name="connectivity" format="ascii">
0 1 5 4
4 5 9 8
8 9 13 12
1 2 6 5
5 6 10 9
9 10 14 13
2 3 7 6
6 7 11 10
10 11 15 14

        </DataArray>
        <DataArray type="Int32" Name="offsets" format="ascii">
4 8 12 16 20 24 28 32 36 
        </DataArray>
        <DataArray type="UInt8" Name="types" format="ascii">
9 9 9 9 9 9 9 9 9 
        </DataArray>
      </Cells>
      <PointData>
        <DataArray type="Float64" Name="u">
          0.00000000e+00 0.00000000e+00 0.00000000e+00 0.00000000e+00 8.88888889e+01 8.67628403e+01 8.71931158e+01 8.11631844e+01 1.55555556e+02 1.52916068e+02 1.53718594e+02 1.47884426e+02 2.00000000e+02 1.97555814e+02 1.98419153e+02 1.93761545e+02 
        </DataArray>
        <DataArray type="Float64" Name="v">
          0.00000000e+00 0.00000000e+00 0.00000000e+00 0.00000000e+00 0.00000000e+00 6.88360822e-01 1.61745162e+00 1.43555595e+00 0.00000000e+00 6.50621855e-01 1.77825019e+00 2.94443636e+00 0.00000000e+00 1.72370645e+00 3.57900419e+00 5.06345082e+00 
        </DataArray>
        <DataArray type="Float64" Name="p">
          -2.07287777e+03 -3.13520417e+03 -4.19753058e+03 -5.25985698e+03 -2.10980487e+03 -3.17722890e+03 -4.24465292e+03 -5.31207694e+03 -2.14673198e+03 -3.21925362e+03 -4.29177526e+03 -5.36429689e+03 -2.18365909e+03 -3.26127834e+03 -4.33889759e+03 -5.41651685e+03 
        </DataArray>
      </PointData>
    </Piece>
    <Piece NumberOfPoints="16" NumberOfCells="9">
      <Points>
        <DataArray type="Float64" NumberOfComponents="3" format="ascii">
          0.00000000e+00 4.00000000e+00 0.00000000e+00 
8.33333313e-01 4.00000000e+00 0.00000000e+00 
1.66666663e+00 4.00000000e+00 0.00000000e+00 
2.50000000e+00 4.00000000e+00 0.00000000e+00 
0.00000000e+00 4.33333349e+00 0.00000000e+00 
8.33333313e-01 4.33333349e+00 0.00000000e+00 
1.66666663e+00 4.33333349e+00 0.00000000e+00 
2.50000000e+00 4.33333349e+00 0.00000000e+00 
0.00000000e+00 4.66666651e+00 0.00000000e+00 
8.33333313e-01 4.66666651e+00 0.00000000e+00 
1.66666663e+00 4.66666651e+00 0.00000000e+00 
2.50000000e+00 4.66666651e+00 0.00000000e+00 
0.00000000e+00 5.00000000e+00 0.00000000e+00 
8.33333313e-01 5.00000000e+00 0.00000000e+00 
1.66666663e+00 5.00000000e+00 0.00000000e+00 
2.50000000e+00 5.00000000e+00 0.00000000e+00 

        </DataArray>
      </Points>
      <Cells>
        <DataArray type="Int32" Name="connectivity" format="ascii">
0 1 5 4
4 5 9 8
8 9 13 12
1 2 6 5
5 6 10 9
9 10 14 13
2 3 7 6
6 7 11 10
10 11 15 14

        </DataArray>
        <DataArray type="Int32" Name="offsets" format="ascii">
4 8 12 16 20 24 28 32 36 
        </DataArray>
        <DataArray type="UInt8" Name="types" format="ascii">
9 9 9 9 9 9 9 9 9 
        </DataArray>
      </Cells>
      <PointData>
        <DataArray type="Float64" Name="u">
          2.00000000e+02 1.97555814e+02 1.98419153e+02 1.93761545e+02 2.22222222e+02 2.20675024e+02 2.21430224e+02 2.19031891e+02 2.22222222e+02 2.21867356e+02 2.22749347e+02 2.22672357e+02 2.00000000e+02 2.00860553e+02 2.01915838e+02 2.04260439e+02 
        </DataArray>
        <DataArray type="Float64" Name="v">
          0.00000000e+00 1.72370645e+00 3.57900419e+00 5.06345082e+00 0.00000000e+00 2.38278599e+00 4.34450231e+00 6.41391115e+00 0.00000000e+00 2.37771536e+00 4.51635420e+00 6.34570534e+00 0.00000000e+00 2.25102799e+00 3.94790221e+00 6.45423444e+00 
        </DataArray>
        <DataArray type="Float64" Name="p">
          -2.18511224e+03 -3.28215253e+03 -4.37919283e+03 -5.47623312e+03 -2.39602279e+03 -3.48066223e+03 -4.56530167e+03 -5.64994111e+03 -2.60693334e+03 -3.67917192e+03 -4.75141051e+03 -5.82364909e+03 -2.81784389e+03 -3.87768162e+03 -4.93751935e+03 -5.99735708e+03 
        </DataArray>
      </PointData>
    </Piece>
    <Piece NumberOfPoints="16" NumberOfCells="9">
      <Points>
        <DataArray type="Float64" NumberOfComponents="3" format="ascii">
          0.00000000e+00 5.00000000e+00 0.00000000e+00 
8.33333313e-01 5.00000000e+00 0.00000000e+00 
1.66666663e+00 5.00000000e+00 0.00000000e+00 
2.50000000e+00 5.00000000e+00 0.00000000e+00 
0.00000000e+00 5.33333349e+00 0.00000000e+00 
8.33333313e-01 5.33333349e+00 0.00000000e+00 
1.66666663e+00 5.33333349e+00 0.00000000e+00 
2.50000000e+00 5.33333349e+00 0.00000000e+00 
0.00000000e+00 5.66666651e+00 0.00000000e+00 
8.33333313e-01 5.66666651e+00 0.00000000e+00 
1.66666663e+00 5.66666651e+00 0.00000000e+00 
2.50000000e+00 5.66666651e+00 0.00000000e+00 
0.00000000e+00 6.00000000e+00 0.00000000e+00 
8.33333313e-01 6.00000000e+00 0.00000000e+00 
1.66666663e+00 6.00000000e+00 0.00000000e+00 
2.50000000e+00 6.00000000e+00 0.00000000e+00 

        </DataArray>
      </Points>
      <Cells>
        <DataArray type="Int32" Name="connectivity" format="ascii">
0 1 5 4
4 5 9 8
8 9 13 12
1 2 6 5
5 6 10 9
9 10 14 13
2 3 7 6
6 7 11 10
10 11 15 14

        </DataArray>
        <DataArray type="Int32" Name="offsets" format="ascii">
4 8 12 16 20 24 28 32 36 
        </DataArray>
        <DataArray type="UInt8" Name="types" format="ascii">
9 9 9 9 9 9 9 9 9 
        </DataArray>
      </Cells>
      <PointData>
        <DataArray type="Float64" Name="u">
          2.00000000e+02 2.00860553e+02 2.01915838e+02 2.04260439e+02 1.55555556e+02 1.58010941e+02 1.58393874e+02 1.63529446e+02 8.88888889e+01 9.22776253e+01 9.15040856e+01 1.00370706e+02 0.00000000e+00 0.00000000e+00 0.00000000e+00 0.00000000e+00 
        </DataArray>
        <DataArray type="Float64" Name="v">
          0.00000000e+00 2.25102799e+00 3.94790221e+00 6.45423444e+00 0.00000000e+00 9.86483058e-01 2.26497624e+00 4.14579742e+00 0.00000000e+00 1.17961178e+00 1.70376368e+00 4.20202822e+00 0.00000000e+00 0.00000000e+00 0.00000000e+00 0.00000000e+00 
        </DataArray>
        <DataArray type="Float64" Name="p">
          -2.85670786e+03 -3.91812249e+03 -4.97953711e+03 -6.04095174e+03 -2.88464033e+03 -3.96740965e+03 -5.05017898e+03 -6.13294830e+03 -2.91257279e+03 -4.01669682e+03 -5.12082084e+03 -6.22494486e+03 -2.94050526e+03 -4.06598398e+03 -5.19146271e+03 -6.31694143e+03 
        </DataArray>
      </PointData>
    </Piece>
    <Piece NumberOfPoints="16" NumberOfCells="9">
      <Points>
        <DataArray type="Float64" NumberOfComponents="3" format="ascii">
          2.50000000e+00 0.00000000e+00 0.00000000e+00 
3.33333325e+00 0.00000000e+00 0.00000000e+00 
4.16666651e+00 0.00000000e+00 0.00000000e+00 
5.00000000e+00 0.00000000e+00 0.00000000e+00 
2.50000000e+00 3.33333343e-01 0.00000000e+00 
3.33333325e+00 3.33333343e-01 0.00000000e+00 
4.16666651e+00 3.33333343e-01 0.00000000e+00 
5.00000000e+00 3.33333343e-01 0.00000000e+00 
2.50000000e+00 6.66666687e-01 0.00000000e+00 
3.33333325e+00 6.66666687e-01 0.00000000e+00 
4.16666651e+00 6.66666687e-01 0.00000000e+00 
5.00000000e+00 6.66666687e-01 0.00000000e+00 
2.50000000e+00 1.00000000e+00 0.00000000e+00 
3.33333325e+00 1.00000000e+00 0.00000000e+00 
4.16666651e+00 1.00000000e+00 0.00000000e+00 
5.00000000e+00 1.00000000e+00 0.00000000e+00 

        </DataArray>
      </Points>
      <Cells>
        <DataArray type="Int32" Name="connectivity" format="ascii">
0 1 5 4
4 5 9 8
8 9 13 12
1 2 6 5
5 6 10 9
9 10 14 13
2 3 7 6
6 7 11 10
10 11 15 14

        </DataArray>
        <DataArray type="Int32" Name="offsets" format="ascii">
4 8 12 16 20 24 28 32 36 
        </DataArray>
        <DataArray type="UInt8" Name="types" format="ascii">
9 9 9 9 9 9 9 9 9 
        </DataArray>
      </Cells>
      <PointData>
        <DataArray type="Float64" Name="u">
          0.00000000e+00 0.00000000e+00 0.00000000e+00 0.00000000e+00 0.00000000e+00 -2.13874447e+00 -3.83752314e+00 -6.75919696e+00 0.00000000e+00 -3.87111231e+00 -7.09627164e+00 -1.17764398e+01 0.00000000e+00 -5.18916643e+00 -9.42277474e+00 -1.48956330e+01 
        </DataArray>
        <DataArray type="Float64" Name="v">
          0.00000000e+00 0.00000000e+00 0.00000000e+00 0.00000000e+00 0.00000000e+00 6.37183335e-01 6.93995545e-01 4.55410842e-01 0.00000000e+00 1.96140383e+00 1.97126270e+00 1.31166956e+00 0.00000000e+00 4.38078480e+00 4.09928145e+00 2.76081859e+00 
        </DataArray>
        <DataArray type="Float64" Name="p">
          -4.66908263e+03 -4.64935561e+03 -4.62962858e+03 -4.60990156e+03 -4.66015894e+03 -4.64038644e+03 -4.62061395e+03 -4.60084145e+03 -4.65123525e+03 -4.63141728e+03 -4.61159931e+03 -4.59178134e+03 -4.64231156e+03 -4.62244812e+03 -4.60258467e+03 -4.58272123e+03 
        </DataArray>
      </PointData>
    </Piece>
    <Piece NumberOfPoints="16" NumberOfCells="9">
      <Points>
        <DataArray type="Float64" NumberOfComponents="3" format="ascii">
          2.50000000e+00 1.00000000e+00 0.00000000e+00 
3.33333325e+00 1.00000000e+00 0.00000000e+00 
4.16666651e+00 1.00000000e+00 0.00000000e+00 
5.00000000e+00 1.00000000e+00 0.00000000e+00 
2.50000000e+00 1.33333337e+00 0.00000000e+00 
3.33333325e+00 1.33333337e+00 0.00000000e+00 
4.16666651e+00 1.33333337e+00 0.00000000e+00 
5.00000000e+00 1.33333337e+00 0.00000000e+00 
2.50000000e+00 1.66666663e+00 0.00000000e+00 
3.33333325e+00 1.66666663e+00 0.00000000e+00 
4.16666651e+00 1.66666663e+00 0.00000000e+00 
5.00000000e+00 1.66666663e+00 0.00000000e+00 
2.50000000e+00 2.00000000e+00 0.00000000e+00 
3.33333325e+00 2.00000000e+00 0.00000000e+00 
4.16666651e+00 2.00000000e+00 0.00000000e+00 
5.00000000e+00 2.00000000e+00 0.00000000e+00 

        </DataArray>
      </Points>
      <Cells>
        <DataArray type="Int32" Name="connectivity" format="ascii">
0 1 5 4
4 5 9 8
8 9 13 12
1 2 6 5
5 6 10 9
9 10 14 13
2 3 7 6
6 7 11 10
10 11 15 14

        </DataArray>
        <DataArray type="Int32" Name="offsets" format="ascii">
4 8 12 16 20 24 28 32 36 
        </DataArray>
        <DataArray type="UInt8" Name="types" format="ascii">
9 9 9 9 9 9 9 9 9 
        </DataArray>
      </Cells>
      <PointData>
        <DataArray type="Float64" Name="u">
          0.00000000e+00 -5.18916643e+00 -9.42277474e+00 -1.48956330e+01 0.00000000e+00 -6.06874950e+00 -1.05336317e+01 -1.59121459e+01 0.00000000e+00 -6.29151234e+00 -1.00048641e+01 -1.42177785e+01 0.00000000e+00 -5.38422236e+00 -7.16124770e+00 -9.07097702e+00 
        </DataArray>
        <DataArray type="Float64" Name="v">
          0.00000000e+00 4.38078480e+00 4.09928145e+00 2.76081859e+00 0.00000000e+00 7.49107056e+00 6.46395074e+00 4.13696602e+00 0.00000000e+00 1.00531603e+01 8.29584920e+00 5.00021006e+00 0.00000000e+00 1.30550380e+01 9.84107305e+00 5.25523752e+00 
        </DataArray>
        <DataArray type="Float64" Name="p">
          -4.63034305e+03 -4.61586165e+03 -4.60138024e+03 -4.58689884e+03 -4.68868430e+03 -4.66352275e+03 -4.63836119e+03 -4.61319964e+03 -4.74702555e+03 -4.71118385e+03 -4.67534214e+03 -4.63950044e+03 -4.80536681e+03 -4.75884495e+03 -4.71232309e+03 -4.66580124e+03 
        </DataArray>
      </PointData>
    </Piece>
    <Piece NumberOfPoints="16" NumberOfCells="9">
      <Points>
        <DataArray type="Float64" NumberOfComponents="3" format="ascii">
          2.50000000e+00 2.00000000e+00 0.00000000e+00 
3.33333325e+00 2.00000000e+00 0.00000000e+00 
4.16666651e+00 2.00000000e+00 0.00000000e+00 
5.00000000e+00 2.00000000e+00 0.00000000e+00 
2.50000000e+00 2.33333325e+00 0.00000000e+00 
3.33333325e+00 2.33333325e+00 0.00000000e+00 
4.16666651e+00 2.33333325e+00 0.00000000e+00 
5.00000000e+00 2.33333325e+00 0.00000000e+00 
2.50000000e+00 2.66666675e+00 0.00000000e+00 
3.33333325e+00 2.66666675e+00 0.00000000e+00 
4.16666651e+00 2.66666675e+00 0.00000000e+00 
5.00000000e+00 2.66666675e+00 0.00000000e+00 
2.50000000e+00 3.00000000e+00 0.00000000e+00 
3.33333325e+00 3.00000000e+00 0.00000000e+00 
4.16666651e+00 3.00000000e+00 0.00000000e+00 
5.00000000e+00 3.00000000e+00 0.00000000e+00 

        </DataArray>
      </Points>
      <Cells>
        <DataArray type="Int32" Name="connectivity" format="ascii">
0 1 5 4
4 5 9 8
8 9 13 12
1 2 6 5
5 6 10 9
9 10 14 13
2 3 7 6
6 7 11 10
10 11 15 14

        </DataArray>
        <DataArray type="Int32" Name="offsets" format="ascii">
4 8 12 16 20 24 28 32 36 
        </DataArray>
        <DataArray type="UInt8" Name="types" format="ascii">
9 9 9 9 9 9 9 9 9 
        </DataArray>
      </Cells>
      <PointData>
        <DataArray type="Float64" Name="u">
          0.00000000e+00 -5.38422236e+00 -7.16124770e+00 -9.07097702e+00 0.00000000e+00 -2.34369346e+00 -1.34292349e+00 1.71609249e+00 0.00000000e+00 7.35200556e+00 1.09477491e+01 1.90757765e+01 0.00000000e+00 3.57960853e+01 3.60321547e+01 4.63060817e+01 
        </DataArray>
        <DataArray type="Float64" Name="v">
          0.00000000e+00 1.30550380e+01 9.84107305e+00 5.25523752e+00 0.00000000e+00 1.51305568e+01 9.31134658e+00 3.97003731e+00 0.00000000e+00 1.35907912e+01 8.42931568e+00 3.01066827e+00 0.00000000e+00 6.02912951e+00 4.41869903e+00 2.75580034e+00 
        </DataArray>
        <DataArray type="Float64" Name="p">
          -4.78403609e+03 -4.76704773e+03 -4.75005938e+03 -4.73307102e+03 -5.00523096e+03 -4.88279157e+03 -4.76035217e+03 -4.63791278e+03 -5.22642583e+03 -4.99853540e+03 -4.77064497e+03 -4.54275454e+03 -5.44762070e+03 -5.11427923e+03 -4.78093777e+03 -4.44759630e+03 
        </DataArray>
      </PointData>
    </Piece>
    <Piece NumberOfPoints="16" NumberOfCells="9">
      <Points>
        <DataArray type="Float64" NumberOfComponents="3" format="ascii">
          2.50000000e+00 3.00000000e+00 0.00000000e+00 
3.33333325e+00 3.00000000e+00 0.00000000e+00 
4.16666651e+00 3.00000000e+00 0.00000000e+00 
5.00000000e+00 3.00000000e+00 0.00000000e+00 
2.50000000e+00 3.33333325e+00 0.00000000e+00 
3.33333325e+00 3.33333325e+00 0.00000000e+00 
4.16666651e+00 3.33333325e+00 0.00000000e+00 
5.00000000e+00 3.33333325e+00 0.00000000e+00 
2.50000000e+00 3.66666675e+00 0.00000000e+00 
3.33333325e+00 3.66666675e+00 0.00000000e+00 
4.16666651e+00 3.66666675e+00 0.00000000e+00 
5.00000000e+00 3.66666675e+00 0.00000000e+00 
2.50000000e+00 4.00000000e+00 0.00000000e+00 
3.33333325e+00 4.00000000e+00 0.00000000e+00 
4.16666651e+00 4.00000000e+00 0.00000000e+00 
5.00000000e+00 4.00000000e+00 0.00000000e+00 

        </DataArray>
      </Points>
      <Cells>
        <DataArray type="Int32" Name="connectivity" format="ascii">
0 1 5 4
4 5 9 8
8 9 13 12
1 2 6 5
5 6 10 9
9 10 14 13
2 3 7 6
6 7 11 10
10 11 15 14

        </DataArray>
        <DataArray type="Int32" Name="offsets" format="ascii">
4 8 12 16 20 24 28 32 36 
        </DataArray>
        <DataArray type="UInt8" Name="types" format="ascii">
9 9 9 9 9 9 9 9 9 
        </DataArray>
      </Cells>
      <PointData>
        <DataArray type="Float64" Name="u">
          0.00000000e+00 3.57960853e+01 3.60321547e+01 4.63060817e+01 8.11631844e+01 8.26524892e+01 8.07010898e+01 7.98972268e+01 1.47884426e+02 1.40126813e+02 1.34129615e+02 1.25177024e+02 1.93761545e+02 1.85239745e+02 1.79543087e+02 1.67715515e+02 
        </DataArray>
        <DataArray type="Float64" Name="v">
          0.00000000e+00 6.02912951e+00 4.41869903e+00 2.75580034e+00 1.43555595e+00 2.85507267e-01 3.58039649e+00 6.70286244e+00 2.94443636e+00 4.77380237e-01 2.68064402e+00 7.82644255e+00 5.06345082e+00 4.67442504e+00 7.81450031e+00 1.22330701e+01 
        </DataArray>
        <DataArray type="Float64" Name="p">
          -5.48170034e+03 -5.06067992e+03 -4.63965951e+03 -4.21863909e+03 -5.24910755e+03 -4.99208504e+03 -4.73506253e+03 -4.47804002e+03 -5.01651475e+03 -4.92349015e+03 -4.83046555e+03 -4.73744095e+03 -4.78392196e+03 -4.85489527e+03 -4.92586857e+03 -4.99684188e+03 
        </DataArray>
      </PointData>
    </Piece>
    <Piece NumberOfPoints="16" NumberOfCells="9">
      <Points>
        <DataArray type="Float64" NumberOfComponents="3" format="ascii">
          2.50000000e+00 4.00000000e+00 0.00000000e+00 
3.33333325e+00 4.00000000e+00 0.00000000e+00 
4.16666651e+00 4.00000000e+00 0.00000000e+00 
5.00000000e+00 4.00000000e+00 0.00000000e+00 
2.50000000e+00 4.33333349e+00 0.00000000e+00 
3.33333325e+00 4.33333349e+00 0.00000000e+00 
4.16666651e+00 4.33333349e+00 0.00000000e+00 
5.00000000e+00 4.33333349e+00 0.00000000e+00 
2.50000000e+00 4.66666651e+00 0.00000000e+00 
3.33333325e+00 4.66666651e+00 0.00000000e+00 
4.16666651e+00 4.66666651e+00 0.00000000e+00 
5.00000000e+00 4.66666651e+00 0.00000000e+00 
2.50000000e+00 5.00000000e+00 0.00000000e+00 
3.33333325e+00 5.00000000e+00 0.00000000e+00 
4.16666651e+00 5.00000000e+00 0.00000000e+00 
5.00000000e+00 5.00000000e+00 0.00000000e+00 

        </DataArray>
      </Points>
      <Cells>
        <DataArray type="Int32" Name="connectivity" format="ascii">
0 1 5 4
4 5 9 8
8 9 13 12
1 2 6 5
5 6 10 9
9 10 14 13
2 3 7 6
6 7 11 10
10 11 15 14

        </DataArray>
        <DataArray type="Int32" Name="offsets" format="ascii">
4 8 12 16 20 24 28 32 36 
        </DataArray>
        <DataArray type="UInt8" Name="types" format="ascii">
9 9 9 9 9 9 9 9 9 
        </DataArray>
      </Cells>
      <PointData>
        <DataArray type="Float64" Name="u">
          1.93761545e+02 1.85239745e+02 1.79543087e+02 1.67715515e+02 2.19031891e+02 2.11014120e+02 2.07106758e+02 1.96621422e+02 2.22672357e+02 2.16297098e+02 2.15267799e+02 2.07825653e+02 2.04260439e+02 1.99678769e+02 2.02921776e+02 1.98788039e+02 
        </DataArray>
        <DataArray type="Float64" Name="v">
          5.06345082e+00 4.67442504e+00 7.81450031e+00 1.22330701e+01 6.41391115e+00 9.22414640e+00 1.20311857e+01 1.56930671e+01 6.34570534e+00 9.88872006e+00 1.40781032e+01 1.80312132e+01 6.45423444e+00 1.28270647e+01 1.61719629e+01 1.86279594e+01 
        </DataArray>
        <DataArray type="Float64" Name="p">
          -4.68779545e+03 -4.84250242e+03 -4.99720939e+03 -5.15191636e+03 -4.96247213e+03 -5.15562543e+03 -5.34877872e+03 -5.54193202e+03 -5.23714881e+03 -5.46874843e+03 -5.70034806e+03 -5.93194768e+03 -5.51182549e+03 -5.78187144e+03 -6.05191739e+03 -6.32196334e+03 
        </DataArray>
      </PointData>
    </Piece>
    <Piece NumberOfPoints="16" NumberOfCells="9">
      <Points>
        <DataArray type="Float64" NumberOfComponents="3" format="ascii">
          2.50000000e+00 5.00000000e+00 0.00000000e+00 
3.33333325e+00 5.00000000e+00 0.00000000e+00 
4.16666651e+00 5.00000000e+00 0.00000000e+00 
5.00000000e+00 5.00000000e+00 0.00000000e+00 
2.50000000e+00 5.33333349e+00 0.00000000e+00 
3.33333325e+00 5.33333349e+00 0.00000000e+00 
4.16666651e+00 5.33333349e+00 0.00000000e+00 
5.00000000e+00 5.33333349e+00 0.00000000e+00 
2.50000000e+00 5.66666651e+00 0.00000000e+00 
3.33333325e+00 5.66666651e+00 0.00000000e+00 
4.16666651e+00 5.66666651e+00 0.00000000e+00 
5.00000000e+00 5.66666651e+00 0.00000000e+00 
2.50000000e+00 6.00000000e+00 0.00000000e+00 
3.33333325e+00 6.00000000e+00 0.00000000e+00 
4.16666651e+00 6.00000000e+00 0.00000000e+00 
5.00000000e+00 6.00000000e+00 0.00000000e+00 

        </DataArray>
      </Points>
      <Cells>
        <DataArray type="Int32" Name="connectivity" format="ascii">
0 1 5 4
4 5 9 8
8 9 13 12
1 2 6 5
5 6 10 9
9 10 14 13
2 3 7 6
6 7 11 10
10 11 15 14

        </DataArray>
        <DataArray type="Int32" Name="offsets" format="ascii">
4 8 12 16 20 24 28 32 36 
        </DataArray>
        <DataArray type="UInt8" Name="types" format="ascii">
9 9 9 9 9 9 9 9 9 
        </DataArray>
      </Cells>
      <PointData>
        <DataArray type="Float64" Name="u">
          2.04260439e+02 1.99678769e+02 2.02921776e+02 1.98788039e+02 1.63529446e+02 1.63155730e+02 1.68999326e+02 1.71866892e+02 1.00370706e+02 1.08008658e+02 1.19226950e+02 1.30881087e+02 0.00000000e+00 5.30076810e+01 6.47534942e+01 8.85398854e+01 
        </DataArray>
        <DataArray type="Float64" Name="v">
          6.45423444e+00 1.28270647e+01 1.61719629e+01 1.86279594e+01 4.14579742e+00 1.26150001e+01 1.57406134e+01 1.57124391e+01 4.20202822e+00 1.24817616e+01 1.40645161e+01 1.36034951e+01 0.00000000e+00 1.04315340e+00 6.04450960e+00 1.09719008e+01 
        </DataArray>
        <DataArray type="Float64" Name="p">
          -5.68115257e+03 -5.90814935e+03 -6.13514612e+03 -6.36214289e+03 -6.30250285e+03 -6.27456565e+03 -6.24662844e+03 -6.21869124e+03 -6.92385313e+03 -6.64098195e+03 -6.35811077e+03 -6.07523959e+03 -7.54520341e+03 -7.00739825e+03 -6.46959309e+03 -5.93178793e+03 
        </DataArray>
      </PointData>
    </Piece>
    <Piece NumberOfPoints="16" NumberOfCells="9">
      <Points>
        <DataArray type="Float64" NumberOfComponents="3" format="ascii">
          2.50000000e+00 6.00000000e+00 0.00000000e+00 
3.33333325e+00 6.00000000e+00 0.00000000e+00 
4.16666651e+00 6.00000000e+00 0.00000000e+00 
5.00000000e+00 6.00000000e+00 0.00000000e+00 
2.50000000e+00 6.33333349e+00 0.00000000e+00 
3.33333325e+00 6.33333349e+00 0.00000000e+00 
4.16666651e+00 6.33333349e+00 0.00000000e+00 
5.00000000e+00 6.33333349e+00 0.00000000e+00 
2.50000000e+00 6.66666651e+00 0.00000000e+00 
3.33333325e+00 6.66666651e+00 0.00000000e+00 
4.16666651e+00 6.66666651e+00 0.00000000e+00 
5.00000000e+00 6.66666651e+00 0.00000000e+00 
2.50000000e+00 7.00000000e+00 0.00000000e+00 
3.33333325e+00 7.00000000e+00 0.00000000e+00 
4.16666651e+00 7.00000000e+00 0.00000000e+00 
5.00000000e+00 7.00000000e+00 0.00000000e+00 

        </DataArray>
      </Points>
      <Cells>
        <DataArray type="Int32" Name="connectivity" format="ascii">
0 1 5 4
4 5 9 8
8 9 13 12
1 2 6 5
5 6 10 9
9 10 14 13
2 3 7 6
6 7 11 10
10 11 15 14

        </DataArray>
        <DataArray type="Int32" Name="offsets" format="ascii">
4 8 12 16 20 24 28 32 36 
        </DataArray>
        <DataArray type="UInt8" Name="types" format="ascii">
9 9 9 9 9 9 9 9 9 
        </DataArray>
      </Cells>
      <PointData>
        <DataArray type="Float64" Name="u">
          0.00000000e+00 5.30076810e+01 6.47534942e+01 8.85398854e+01 0.00000000e+00 1.40844083e+01 2.64097863e+01 4.84019284e+01 0.00000000e+00 3.51271737e-03 6.52667899e+00 1.99008408e+01 0.00000000e+00 -4.82024143e+00 -3.60472432e+00 -3.08536302e-01 
        </DataArray>
        <DataArray type="Float64" Name="v">
          0.00000000e+00 1.04315340e+00 6.04450960e+00 1.09719008e+01 0.00000000e+00 -1.22900139e+01 -3.81127435e+00 6.31010554e+00 0.00000000e+00 -1.66082616e+01 -8.25901381e+00 1.69885327e+00 0.00000000e+00 -1.54830204e+01 -1.16151179e+01 -3.72655791e+00 
        </DataArray>
        <DataArray type="Float64" Name="p">
          -7.39776152e+03 -6.95169901e+03 -6.50563649e+03 -6.05957398e+03 -7.11703338e+03 -6.82499804e+03 -6.53296271e+03 -6.24092737e+03 -6.83630523e+03 -6.69829708e+03 -6.56028892e+03 -6.42228076e+03 -6.55557709e+03 -6.57159611e+03 -6.58761513e+03 -6.60363414e+03 
        </DataArray>
      </PointData>
    </Piece>
    <Piece NumberOfPoints="16" NumberOfCells="9">
      <Points>
        <DataArray type="Float64" NumberOfComponents="3" format="ascii">
          2.50000000e+00 7.00000000e+00 0.00000000e+00 
3.33333325e+00 7.00000000e+00 0.00000000e+00 
4.16666651e+00 7.00000000e+00 0.00000000e+00 
5.00000000e+00 7.00000000e+00 0.00000000e+00 
2.50000000e+00 7.33333349e+00 0.00000000e+00 
3.33333325e+00 7.33333349e+00 0.00000000e+00 
4.16666651e+00 7.33333349e+00 0.00000000e+00 
5.00000000e+00 7.33333349e+00 0.00000000e+00 
2.50000000e+00 7.66666651e+00 0.00000000e+00 
3.33333325e+00 7.66666651e+00 0.00000000e+00 
4.16666651e+00 7.66666651e+00 0.00000000e+00 
5.00000000e+00 7.66666651e+00 0.00000000e+00 
2.50000000e+00 8.00000000e+00 0.00000000e+00 
3.33333325e+00 8.00000000e+00 0.00000000e+00 
4.16666651e+00 8.00000000e+00 0.00000000e+00 
5.00000000e+00 8.00000000e+00 0.00000000e+00 

        </DataArray>
      </Points>
      <Cells>
        <DataArray type="Int32" Name="connectivity" format="ascii">
0 1 5 4
4 5 9 8
8 9 13 12
1 2 6 5
5 6 10 9
9 10 14 13
2 3 7 6
6 7 11 10
10 11 15 14

        </DataArray>
        <DataArray type="Int32" Name="offsets" format="ascii">
4 8 12 16 20 24 28 32 36 
        </DataArray>
        <DataArray type="UInt8" Name="types" format="ascii">
9 9 9 9 9 9 9 9 9 
        </DataArray>
      </Cells>
      <PointData>
        <DataArray type="Float64" Name="u">
          0.00000000e+00 -4.82024143e+00 -3.60472432e+00 -3.08536302e-01 0.00000000e+00 -6.91016644e+00 -9.71891749e+00 -1.22207966e+01 0.00000000e+00 -7.42910275e+00 -1.23710237e+01 -1.85234853e+01 0.00000000e+00 -6.85668731e+00 -1.22386602e+01 -1.98909465e+01 
        </DataArray>
        <DataArray type="Float64" Name="v">
          0.00000000e+00 -1.54830204e+01 -1.16151179e+01 -3.72655791e+00 0.00000000e+00 -1.26918614e+01 -1.09628349e+01 -5.64392894e+00 0.00000000e+00 -9.82080067e+00 -9.03069652e+00 -5.61598427e+00 0.00000000e+00 -5.97610972e+00 -5.95213847e+00 -4.26329699e+00 
        </DataArray>
        <DataArray type="Float64" Name="p">
          -6.59694798e+03 -6.56099126e+03 -6.52503455e+03 -6.48907784e+03 -6.52746133e+03 -6.49369501e+03 -6.45992869e+03 -6.42616237e+03 -6.45797469e+03 -6.42639876e+03 -6.39482283e+03 -6.36324689e+03 -6.38848805e+03 -6.35910251e+03 -6.32971696e+03 -6.30033142e+03 
        </DataArray>
      </PointData>
    </Piece>
    <Piece NumberOfPoints="16" NumberOfCells="9">
      <Points>
        <DataArray type="Float64" NumberOfComponents="3" format="ascii">
          2.50000000e+00 8.00000000e+00 0.00000000e+00 
3.33333325e+00 8.00000000e+00 0.00000000e+00 
4.16666651e+00 8.00000000e+00 0.00000000e+00 
5.00000000e+00 8.00000000e+00 0.00000000e+00 
2.50000000e+00 8.33333302e+00 0.00000000e+00 
3.33333325e+00 8.33333302e+00 0.00000000e+00 
4.16666651e+00 8.33333302e+00 0.00000000e+00 
5.00000000e+00 8.33333302e+00 0.00000000e+00 
2.50000000e+00 8.66666698e+00 0.00000000e+00 
3.33333325e+00 8.66666698e+00 0.00000000e+00 
4.16666651e+00 8.66666698e+00 0.00000000e+00 
5.00000000e+00 8.66666698e+00 0.00000000e+00 
2.50000000e+00 9.00000000e+00 0.00000000e+00 
3.33333325e+00 9.00000000e+00 0.00000000e+00 
4.16666651e+00 9.00000000e+00 0.00000000e+00 
5.00000000e+00 9.00000000e+00 0.00000000e+00 

        </DataArray>
      </Points>
      <Cells>
        <DataArray type="Int32" Name="connectivity" format="ascii">
0 1 5 4
4 5 9 8
8 9 13 12
1 2 6 5
5 6 10 9
9 10 14 13
2 3 7 6
6 7 11 10
10 11 15 14

        </DataArray>
        <DataArray type="Int32" Name="offsets" format="ascii">
4 8 12 16 20 24 28 32 36 
        </DataArray>
        <DataArray type="UInt8" Name="types" format="ascii">
9 9 9 9 9 9 9 9 9 
        </DataArray>
      </Cells>
      <PointData>
        <DataArray type="Float64" Name="u">
          0.00000000e+00 -6.85668731e+00 -1.22386602e+01 -1.98909465e+01 0.00000000e+00 -5.37119216e+00 -9.73369664e+00 -1.68916474e+01 0.00000000e+00 -3.05452936e+00 -5.42297891e+00 -9.85140506e+00 0.00000000e+00 0.00000000e+00 0.00000000e+00 0.00000000e+00 
        </DataArray>
        <DataArray type="Float64" Name="v">
          0.00000000e+00 -5.97610972e+00 -5.95213847e+00 -4.26329699e+00 0.00000000e+00 -2.72766294e+00 -2.81668025e+00 -2.20272413e+00 0.00000000e+00 -9.29077504e-01 -1.00236957e+00 -8.79743778e-01 0.00000000e+00 0.00000000e+00 0.00000000e+00 0.00000000e+00 
        </DataArray>
        <DataArray type="Float64" Name="p">
          -6.40071622e+03 -6.36243381e+03 -6.32415140e+03 -6.28586899e+03 -6.41023520e+03 -6.37333579e+03 -6.33643638e+03 -6.29953697e+03 -6.41975419e+03 -6.38423777e+03 -6.34872136e+03 -6.31320495e+03 -6.42927317e+03 -6.39513975e+03 -6.36100634e+03 -6.32687292e+03 
        </DataArray>
      </PointData>
    </Piece>
    <Piece NumberOfPoints="16" NumberOfCells="9">
      <Points>
        <DataArray type="Float64" NumberOfComponents="3" format="ascii">
          5.00000000e+00 0.00000000e+00 0.00000000e+00 
5.83333349e+00 0.00000000e+00 0.00000000e+00 
6.66666651e+00 0.00000000e+00 0.00000000e+00 
7.50000000e+00 0.00000000e+00 0.00000000e+00 
5.00000000e+00 3.33333343e-01 0.00000000e+00 
5.83333349e+00 3.33333343e-01 0.00000000e+00 
6.66666651e+00 3.33333343e-01 0.00000000e+00 
7.50000000e+00 3.33333343e-01 0.00000000e+00 
5.00000000e+00 6.66666687e-01 0.00000000e+00 
5.83333349e+00 6.66666687e-01 0.00000000e+00 
6.66666651e+00 6.66666687e-01 0.00000000e+00 
7.50000000e+00 6.66666687e-01 0.00000000e+00 
5.00000000e+00 1.00000000e+00 0.00000000e+00 
5.83333349e+00 1.00000000e+00 0.00000000e+00 
6.66666651e+00 1.00000000e+00 0.00000000e+00 
7.50000000e+00 1.00000000e+00 0.00000000e+00 

        </DataArray>
      </Points>
      <Cells>
        <DataArray type="Int32" Name="connectivity" format="ascii">
0 1 5 4
4 5 9 8
8 9 13 12
1 2 6 5
5 6 10 9
9 10 14 13
2 3 7 6
6 7 11 10
10 11 15 14

        </DataArray>
        <DataArray type="Int32" Name="offsets" format="ascii">
4 8 12 16 20 24 28 32 36 
        </DataArray>
        <DataArray type="UInt8" Name="types" format="ascii">
9 9 9 9 9 9 9 9 9 
        </DataArray>
      </Cells>
      <PointData>
        <DataArray type="Float64" Name="u">