<?xml version="1.0"?>
<VTKFile type="UnstructuredGrid" version="0.1" byte_order="LittleEndian">
  <UnstructuredGrid>
    <Piece NumberOfPoints="16" NumberOfCells="9">
      <Points>
        <DataArray type="Float64" NumberOfComponents="3" format="ascii">
          0.00000000e+00 3.00000000e+00 0.00000000e+00 
8.33333313e-01 3.00000000e+00 0.00000000e+00 
1.66666663e+00 3.00000000e+00 0.00000000e+00 
2.50000000e+00 3.00000000e+00 0.00000000e+00 
0.00000000e+00 3.33333325e+00 0.00000000e+00 
8.33333313e-01 3.33333325e+00 0.00000000e+00 
1.66666663e+00 3.33333325e+00 0.00000000e+00 
2.50000000e+00 3.33333325e+00 0.00000000e+00 
0.00000000e+00 3.66666675e+00 0.00000000e+00 
8.33333313e-01 3.66666675e+00 0.00000000e+00 
1.66666663e+00 3.66666675e+00 0.00000000e+00 
2.50000000e+00 3.66666675e+00 0.00000000e+00 
0.00000000e+00 4.00000000e+00 0.00000000e+00 
8.33333313e-01 4.00000000e+00 0.00000000e+00 
1.66666663e+00 4.00000000e+00 0.00000000e+00 
2.50000000e+00 4.00000000e+00 0.00000000e+00 

        </DataArray>
      </Points>
      <Cells>
        <DataArray type="Int32" Name="connectivity" format="ascii">
0 1 5 4
4 5 9 8
8 9 13 12
1 2 6 5
5 6 10 9
9 10 14 13
2 3 7 6
6 7 11 10
10 11 15 14

        </DataArray>
        <DataArray type="Int32" Name="offsets" format="ascii">
4 8 12 16 20 24 28 32 36 
        </DataArray>
        <DataArray type="UInt8" Name="types" format="ascii">
9 9 9 9 9 9 9 9 9 
        </DataArray>
      </Cells>
      <PointData>
        <DataArray type="Float64" Name="u">
          0.00000000e+00 0.00000000e+00 0.00000000e+00 0.00000000e+00 8.88888889e+01 8.81035048e+01 8.83762626e+01 8.60576695e+01 1.55555556e+02 1.53993447e+02 1.54954713e+02 1.51382390e+02 2.00000000e+02 1.98048375e+02 1.99342323e+02 1.95745739e+02 
        </DataArray>
        <DataArray type="Float64" Name="v">
          0.00000000e+00 0.00000000e+00 0.00000000e+00 0.00000000e+00 0.00000000e+00 1.98762720e-01 7.80773202e-01 -2.05276063e-01 0.00000000e+00 2.34147284e-01 8.65768030e-01 1.12173169e+00 0.00000000e+00 7.50736015e-01 1.81565603e+00 2.40779036e+00 
        </DataArray>
        <DataArray type="Float64" Name="p">
          -1.15503393e+03 -2.52522167e+03 -3.89540941e+03 -5.26559716e+03 -1.17963975e+03 -2.54578029e+03 -3.91192084e+03 -5.27806138e+03 -1.20424558e+03 -2.56633892e+03 -3.92843226e+03 -5.29052560e+03 -1.22885141e+03 -2.58689755e+03 -3.94494368e+03 -5.30298982e+03 
        </DataArray>
      </PointData>
    </Piece>
    <Piece NumberOfPoints="16" NumberOfCells="9">
      <Points>
        <DataArray type="Float64" NumberOfComponents="3" format="ascii">
          0.00000000e+00 4.00000000e+00 0.00000000e+00 
8.33333313e-01 4.00000000e+00 0.00000000e+00 
1.66666663e+00 4.00000000e+00 0.00000000e+00 
2.50000000e+00 4.00000000e+00 0.00000000e+00 
0.00000000e+00 4.33333349e+00 0.00000000e+00 
8.33333313e-01 4.33333349e+00 0.00000000e+00 
1.66666663e+00 4.33333349e+00 0.00000000e+00 
2.50000000e+00 4.33333349e+00 0.00000000e+00 
0.00000000e+00 4.66666651e+00 0.00000000e+00 
8.33333313e-01 4.66666651e+00 0.00000000e+00 
1.66666663e+00 4.66666651e+00 0.00000000e+00 
2.50000000e+00 4.66666651e+00 0.00000000e+00 
0.00000000e+00 5.00000000e+00 0.00000000e+00 
8.33333313e-01 5.00000000e+00 0.00000000e+00 
1.66666663e+00 5.00000000e+00 0.00000000e+00 
2.50000000e+00 5.00000000e+00 0.00000000e+00 

        </DataArray>
      </Points>
      <Cells>
        <DataArray type="Int32" Name="connectivity" format="ascii">
0 1 5 4
4 5 9 8
8 9 13 12
1 2 6 5
5 6 10 9
9 10 14 13
2 3 7 6
6 7 11 10
10 11 15 14

        </DataArray>
        <DataArray type="Int32" Name="offsets" format="ascii">
4 8 12 16 20 24 28 32 36 
        </DataArray>
        <DataArray type="UInt8" Name="types" format="ascii">
9 9 9 9 9 9 9 9 9 
        </DataArray>
      </Cells>
      <PointData>
        <DataArray type="Float64" Name="u">
          2.00000000e+02 1.98048375e+02 1.99342323e+02 1.95745739e+02 2.22222222e+02 2.20617036e+02 2.21805137e+02 2.19484426e+02 2.22222222e+02 2.21284063e+02 2.22562694e+02 2.21574099e+02 2.00000000e+02 1.99909399e+02 2.01367211e+02 2.01698794e+02 
        </DataArray>
        <DataArray type="Float64" Name="v">
          0.00000000e+00 7.50736015e-01 1.81565603e+00 2.40779036e+00 0.00000000e+00 1.27155955e+00 2.33528993e+00 3.67252992e+00 0.00000000e+00 1.29625711e+00 2.54843394e+00 3.60646440e+00 0.00000000e+00 1.36881087e+00 2.31744597e+00 4.13348661e+00 
        </DataArray>
        <DataArray type="Float64" Name="p">
          -1.21798414e+03 -2.59094334e+03 -3.96390254e+03 -5.33686175e+03 -1.32776678e+03 -2.70119468e+03 -4.07462258e+03 -5.44805048e+03 -1.43754941e+03 -2.81144601e+03 -4.18534261e+03 -5.55923920e+03 -1.54733205e+03 -2.92169735e+03 -4.29606264e+03 -5.67042793e+03 
        </DataArray>
      </PointData>
    </Piece>
    <Piece NumberOfPoints="16" NumberOfCells="9">
      <Points>
        <DataArray type="Float64" NumberOfComponents="3" format="ascii">
          0.00000000e+00 5.00000000e+00 0.00000000e+00 
8.33333313e-01 5.00000000e+00 0.00000000e+00 
1.66666663e+00 5.00000000e+00 0.00000000e+00 
2.50000000e+00 5.00000000e+00 0.00000000e+00 
0.00000000e+00 5.33333349e+00 0.00000000e+00 
8.33333313e-01 5.33333349e+00 0.00000000e+00 
1.66666663e+00 5.33333349e+00 0.00000000e+00 
2.50000000e+00 5.33333349e+00 0.00000000e+00 
0.00000000e+00 5.66666651e+00 0.00000000e+00 
8.33333313e-01 5.66666651e+00 0.00000000e+00 
1.66666663e+00 5.66666651e+00 0.00000000e+00 
2.50000000e+00 5.66666651e+00 0.00000000e+00 
0.00000000e+00 6.00000000e+00 0.00000000e+00 
8.33333313e-01 6.00000000e+00 0.00000000e+00 
1.66666663e+00 6.00000000e+00 0.00000000e+00 
2.50000000e+00 6.00000000e+00 0.00000000e+00 

        </DataArray>
      </Points>
      <Cells>
        <DataArray type="Int32" Name="connectivity" format="ascii">
0 1 5 4
4 5 9 8
8 9 13 12
1 2 6 5
5 6 10 9
9 10 14 13
2 3 7 6
6 7 11 10
10 11 15 14

        </DataArray>
        <DataArray type="Int32" Name="offsets" format="ascii">
4 8 12 16 20 24 28 32 36 
        </DataArray>
        <DataArray type="UInt8" Name="types" format="ascii">
9 9 9 9 9 9 9 9 9 
        </DataArray>
      </Cells>
      <PointData>
        <DataArray type="Float64" Name="u">
          2.00000000e+02 1.99909399e+02 2.01367211e+02 2.01698794e+02 1.55555556e+02 1.56769831e+02 1.57574100e+02 1.60250120e+02 8.88888889e+01 9.08918260e+01 9.06225126e+01 9.62882740e+01 0.00000000e+00 0.00000000e+00 0.00000000e+00 0.00000000e+00 
        </DataArray>
        <DataArray type="Float64" Name="v">
          0.00000000e+00 1.36881087e+00 2.31744597e+00 4.13348661e+00 0.00000000e+00 6.67316394e-01 1.37831444e+00 2.94330340e+00 0.00000000e+00 6.95634728e-01 8.87772473e-01 3.29405025e+00 0.00000000e+00 0.00000000e+00 0.00000000e+00 0.00000000e+00 
        </DataArray>
        <DataArray type="Float64" Name="p">
          -1.58054795e+03 -2.95419039e+03 -4.32783283e+03 -5.70147527e+03 -1.58454184e+03 -2.98101470e+03 -4.37748755e+03 -5.77396040e+03 -1.58853574e+03 -3.00783901e+03 -4.42714227e+03 -5.84644553e+03 -1.59252964e+03 -3.03466332e+03 -4.47679699e+03 -5.91893066e+03 
        </DataArray>
      </PointData>
    </Piece>
    <Piece NumberOfPoints="16" NumberOfCells="9">
      <Points>
        <DataArray type="Float64" NumberOfComponents="3" format="ascii">
          2.50000000e+00 0.00000000e+00 0.00000000e+00 
3.33333325e+00 0.00000000e+00 0.00000000e+00 
4.16666651e+00 0.00000000e+00 0.00000000e+00 
5.00000000e+00 0.00000000e+00 0.00000000e+00 
2.50000000e+00 3.33333343e-01 0.00000000e+00 
3.33333325e+00 3.33333343e-01 0.00000000e+00 
4.16666651e+00 3.33333343e-01 0.00000000e+00 
5.00000000e+00 3.33333343e-01 0.00000000e+00 
2.50000000e+00 6.66666687e-01 0.00000000e+00 
3.33333325e+00 6.66666687e-01 0.00000000e+00 
4.16666651e+00 6.66666687e-01 0.00000000e+00 
5.00000000e+00 6.66666687e-01 0.00000000e+00 
2.50000000e+00 1.00000000e+00 0.00000000e+00 
3.33333325e+00 1.00000000e+00 0.00000000e+00 
4.16666651e+00 1.00000000e+00 0.00000000e+00 
5.00000000e+00 1.00000000e+00 0.00000000e+00 

        </DataArray>
      </Points>
      <Cells>
        <DataArray type="Int32" Name="connectivity" format="ascii">
0 1 5 4
4 5 9 8
8 9 13 12
1 2 6 5
5 6 10 9
9 10 14 13
2 3 7 6
6 7 11 10
10 11 15 14

        </DataArray>
        <DataArray type="Int32" Name="offsets" format="ascii">
4 8 12 16 20 24 28 32 36 
        </DataArray>
        <DataArray type="UInt8" Name="types" format="ascii">
9 9 9 9 9 9 9 9 9 
        </DataArray>
      </Cells>
      <PointData>
        <DataArray type="Float64" Name="u">
          0.00000000e+00 0.00000000e+00 0.00000000e+00 0.00000000e+00 0.00000000e+00 -2.73861944e+00 -4.65773633e+00 -8.28373025e+00 0.00000000e+00 -4.81221047e+00 -8.40325570e+00 -1.40534302e+01 0.00000000e+00 -6.25612033e+00 -1.08106423e+01 -1.71692642e+01 
        </DataArray>
        <DataArray type="Float64" Name="v">
          0.00000000e+00 0.00000000e+00 0.00000000e+00 0.00000000e+00 0.00000000e+00 8.01941220e-01 8.59536858e-01 5.46546727e-01 0.00000000e+00 2.40296983e+00 2.38557034e+00 1.52169480e+00 0.00000000e+00 5.28829614e+00 4.89069747e+00 3.13531745e+00 
        </DataArray>
        <DataArray type="Float64" Name="p">
          -4.65353345e+03 -4.61080116e+03 -4.56806886e+03 -4.52533657e+03 -4.64047998e+03 -4.59785498e+03 -4.55522998e+03 -4.51260498e+03 -4.62742652e+03 -4.58490880e+03 -4.54239109e+03 -4.49987338e+03 -4.61437305e+03 -4.57196263e+03 -4.52955221e+03 -4.48714178e+03 
        </DataArray>
      </PointData>
    </Piece>
    <Piece NumberOfPoints="16" NumberOfCells="9">
      <Points>
        <DataArray type="Float64" NumberOfComponents="3" format="ascii">
          2.50000000e+00 1.00000000e+00 0.00000000e+00 
3.33333325e+00 1.00000000e+00 0.00000000e+00 
4.16666651e+00 1.00000000e+00 0.00000000e+00 
5.00000000e+00 1.00000000e+00 0.00000000e+00 
2.50000000e+00 1.33333337e+00 0.00000000e+00 
3.33333325e+00 1.33333337e+00 0.00000000e+00 
4.16666651e+00 1.33333337e+00 0.00000000e+00 
5.00000000e+00 1.33333337e+00 0.00000000e+00 
2.50000000e+00 1.66666663e+00 0.00000000e+00 
3.33333325e+00 1.66666663e+00 0.00000000e+00 
4.16666651e+00 1.66666663e+00 0.00000000e+00 
5.00000000e+00 1.66666663e+00 0.00000000e+00 
2.50000000e+00 2.00000000e+00 0.00000000e+00 
3.33333325e+00 2.00000000e+00 0.00000000e+00 
4.16666651e+00 2.00000000e+00 0.00000000e+00 
5.00000000e+00 2.00000000e+00 0.00000000e+00 

        </DataArray>
      </Points>
      <Cells>
        <DataArray type="Int32" Name="connectivity" format="ascii">
0 1 5 4
4 5 9 8
8 9 13 12
1 2 6 5
5 6 10 9
9 10 14 13
2 3 7 6
6 7 11 10
10 11 15 14

        </DataArray>
        <DataArray type="Int32" Name="offsets" format="ascii">
4 8 12 16 20 24 28 32 36 
        </DataArray>
        <DataArray type="UInt8" Name="types" format="ascii">
9 9 9 9 9 9 9 9 9 
        </DataArray>
      </Cells>
      <PointData>
        <DataArray type="Float64" Name="u">
          0.00000000e+00 -6.25612033e+00 -1.08106423e+01 -1.71692642e+01 0.00000000e+00 -7.07000500e+00 -1.15756729e+01 -1.74400361e+01 0.00000000e+00 -7.00286671e+00 -1.02510274e+01 -1.42463695e+01 0.00000000e+00 -5.49050625e+00 -6.12517476e+00 -6.85590984e+00 
        </DataArray>
        <DataArray type="Float64" Name="v">
          0.00000000e+00 5.28829614e+00 4.89069747e+00 3.13531745e+00 0.00000000e+00 8.84600280e+00 7.52272692e+00 4.50051098e+00 0.00000000e+00 1.16632629e+01 9.43991815e+00 5.16169706e+00 0.00000000e+00 1.47330478e+01 1.07443111e+01 4.87397811e+00 
        </DataArray>
        <DataArray type="Float64" Name="p">
          -4.59847801e+03 -4.56456609e+03 -4.53065416e+03 -4.49674224e+03 -4.68679983e+03 -4.63578131e+03 -4.58476279e+03 -4.53374427e+03 -4.77512165e+03 -4.70699653e+03 -4.63887142e+03 -4.57074630e+03 -4.86344347e+03 -4.77821176e+03 -4.69298005e+03 -4.60774834e+03 
        </DataArray>
      </PointData>
    </Piece>
    <Piece NumberOfPoints="16" NumberOfCells="9">
      <Points>
        <DataArray type="Float64" NumberOfComponents="3" format="ascii">
          2.50000000e+00 2.00000000e+00 0.00000000e+00 
3.33333325e+00 2.00000000e+00 0.00000000e+00 
4.16666651e+00 2.00000000e+00 0.00000000e+00 
5.00000000e+00 2.00000000e+00 0.00000000e+00 
2.50000000e+00 2.33333325e+00 0.00000000e+00 
3.33333325e+00 2.33333325e+00 0.00000000e+00 
4.16666651e+00 2.33333325e+00 0.00000000e+00 
5.00000000e+00 2.33333325e+00 0.00000000e+00 
2.50000000e+00 2.66666675e+00 0.00000000e+00 
3.33333325e+00 2.66666675e+00 0.00000000e+00 
4.16666651e+00 2.66666675e+00 0.00000000e+00 
5.00000000e+00 2.66666675e+00 0.00000000e+00 
2.50000000e+00 3.00000000e+00 0.00000000e+00 
3.33333325e+00 3.00000000e+00 0.00000000e+00 
4.16666651e+00 3.00000000e+00 0.00000000e+00 
5.00000000e+00 3.00000000e+00 0.00000000e+00 

        </DataArray>
      </Points>
      <Cells>
        <DataArray type="Int32" Name="connectivity" format="ascii">
0 1 5 4
4 5 9 8
8 9 13 12
1 2 6 5
5 6 10 9
9 10 14 13
2 3 7 6
6 7 11 10
10 11 15 14

        </DataArray>
        <DataArray type="Int32" Name="offsets" format="ascii">
4 8 12 16 20 24 28 32 36 
        </DataArray>
        <DataArray type="UInt8" Name="types" format="ascii">
9 9 9 9 9 9 9 9 9 
        </DataArray>
      </Cells>
      <PointData>
        <DataArray type="Float64" Name="u">
          0.00000000e+00 -5.49050625e+00 -6.12517476e+00 -6.85590984e+00 0.00000000e+00 -1.34895377e+00 1.50146705e+00 6.95957381e+00 0.00000000e+00 1.05297581e+01 1.64818915e+01 2.76873882e+01 0.00000000e+00 4.20335356e+01 4.45761536e+01 5.80835891e+01 
        </DataArray>
        <DataArray type="Float64" Name="v">
          0.00000000e+00 1.47330478e+01 1.07443111e+01 4.87397811e+00 0.00000000e+00 1.64867551e+01 9.51129145e+00 2.73433388e+00 0.00000000e+00 1.37942853e+01 7.54015013e+00 1.11016488e+00 0.00000000e+00 4.11033205e+00 2.19273854e+00 3.29416802e-01 
        </DataArray>
        <DataArray type="Float64" Name="p">
          -4.83142359e+03 -4.78807899e+03 -4.74473440e+03 -4.70138980e+03 -5.14916704e+03 -4.95010425e+03 -4.75104146e+03 -4.55197867e+03 -5.46691049e+03 -5.11212951e+03 -4.75734853e+03 -4.40256755e+03 -5.78465394e+03 -5.27415477e+03 -4.76365559e+03 -4.25315642e+03 
        </DataArray>
      </PointData>
    </Piece>
    <Piece NumberOfPoints="16" NumberOfCells="9">
      <Points>
        <DataArray type="Float64" NumberOfComponents="3" format="ascii">
          2.50000000e+00 3.00000000e+00 0.00000000e+00 
3.33333325e+00 3.00000000e+00 0.00000000e+00 
4.16666651e+00 3.00000000e+00 0.00000000e+00 
5.00000000e+00 3.00000000e+00 0.00000000e+00 
2.50000000e+00 3.33333325e+00 0.00000000e+00 
3.33333325e+00 3.33333325e+00 0.00000000e+00 
4.16666651e+00 3.33333325e+00 0.00000000e+00 
5.00000000e+00 3.33333325e+00 0.00000000e+00 
2.50000000e+00 3.66666675e+00 0.00000000e+00 
3.33333325e+00 3.66666675e+00 0.00000000e+00 
4.16666651e+00 3.66666675e+00 0.00000000e+00 
5.00000000e+00 3.66666675e+00 0.00000000e+00 
2.50000000e+00 4.00000000e+00 0.00000000e+00 
3.33333325e+00 4.00000000e+00 0.00000000e+00 
4.16666651e+00 4.00000000e+00 0.00000000e+00 
5.00000000e+00 4.00000000e+00 0.00000000e+00 

        </DataArray>
      </Points>
      <Cells>
        <DataArray type="Int32" Name="connectivity" format="ascii">
0 1 5 4
4 5 9 8
8 9 13 12
1 2 6 5
5 6 10 9
9 10 14 13
2 3 7 6
6 7 11 10
10 11 15 14

        </DataArray>
        <DataArray type="Int32" Name="offsets" format="ascii">
4 8 12 16 20 24 28 32 36 
        </DataArray>
        <DataArray type="UInt8" Name="types" format="ascii">
9 9 9 9 9 9 9 9 9 
        </DataArray>
      </Cells>
      <PointData>
        <DataArray type="Float64" Name="u">
          0.00000000e+00 4.20335356e+01 4.45761536e+01 5.80835891e+01 8.60576695e+01 8.93659755e+01 9.03780029e+01 9.26555175e+01 1.51382390e+02 1.44785213e+02 1.41265487e+02 1.35134107e+02 1.95745739e+02 1.87249468e+02 1.83182423e+02 1.72772667e+02 
        </DataArray>
        <DataArray type="Float64" Name="v">
          0.00000000e+00 4.11033205e+00 2.19273854e+00 3.29416802e-01 -2.05276063e-01 -3.16398124e+00 -3.65290792e-01 2.93356528e+00 1.12173169e+00 -3.23653368e+00 -1.55505620e+00 3.49169057e+00 2.40779036e+00 3.43607478e-01 2.41373817e+00 6.09511619e+00 
        </DataArray>
        <DataArray type="Float64" Name="p">
          -5.82180047e+03 -5.22006607e+03 -4.61833166e+03 -4.01659726e+03 -5.43336068e+03 -5.06006609e+03 -4.68677149e+03 -4.31347690e+03 -5.04492090e+03 -4.90006611e+03 -4.75521133e+03 -4.61035654e+03 -4.65648111e+03 -4.74006613e+03 -4.82365116e+03 -4.90723618e+03 
        </DataArray>
      </PointData>
    </Piece>
    <Piece NumberOfPoints="16" NumberOfCells="9">
      <Points>
        <DataArray type="Float64" NumberOfComponents="3" format="ascii">
          2.50000000e+00 4.00000000e+00 0.00000000e+00 
3.33333325e+00 4.00000000e+00 0.00000000e+00 
4.16666651e+00 4.00000000e+00 0.00000000e+00 
5.00000000e+00 4.00000000e+00 0.00000000e+00 
2.50000000e+00 4.33333349e+00 0.00000000e+00 
3.33333325e+00 4.33333349e+00 0.00000000e+00 
4.16666651e+00 4.33333349e+00 0.00000000e+00 
5.00000000e+00 4.33333349e+00 0.00000000e+00 
2.50000000e+00 4.66666651e+00 0.00000000e+00 
3.33333325e+00 4.66666651e+00 0.00000000e+00 
4.16666651e+00 4.66666651e+00 0.00000000e+00 
5.00000000e+00 4.66666651e+00 0.00000000e+00 
2.50000000e+00 5.00000000e+00 0.00000000e+00 
3.33333325e+00 5.00000000e+00 0.00000000e+00 
4.16666651e+00 5.00000000e+00 0.00000000e+00 
5.00000000e+00 5.00000000e+00 0.00000000e+00 

        </DataArray>
      </Points>
      <Cells>
        <DataArray type="Int32" Name="connectivity" format="ascii">
0 1 5 4
4 5 9 8
8 9 13 12
1 2 6 5
5 6 10 9
9 10 14 13
2 3 7 6
6 7 11 10
10 11 15 14

        </DataArray>
        <DataArray type="Int32" Name="offsets" format="ascii">
4 8 12 16 20 24 28 32 36 
        </DataArray>
        <DataArray type="UInt8" Name="types" format="ascii">
9 9 9 9 9 9 9 9 9 
        </DataArray>
      </Cells>
      <PointData>
        <DataArray type="Float64" Name="u">
          1.95745739e+02 1.87249468e+02 1.83182423e+02 1.72772667e+02 2.19484426e+02 2.10690565e+02 2.07123799e+02 1.96875037e+02 2.21574099e+02 2.13639529e+02 2.11748382e+02 2.03101883e+02 2.01698794e+02 1.95424312e+02 1.96414331e+02 1.90055331e+02 
        </DataArray>
        <DataArray type="Float64" Name="v">
          2.40779036e+00 3.43607478e-01 2.41373817e+00 6.09511619e+00 3.67252992e+00 4.91678452e+00 6.23214968e+00 8.54170028e+00 3.60646440e+00 6.05206625e+00 8.86415175e+00 1.10810964e+01 4.13348661e+00 9.73761919e+00 1.15371872e+01 1.19615766e+01 
        </DataArray>
        <DataArray type="Float64" Name="p">
          -4.51219931e+03 -4.69219817e+03 -4.87219703e+03 -5.05219589e+03 -4.67394352e+03 -4.87838884e+03 -5.08283417e+03 -5.28727949e+03 -4.83568773e+03 -5.06457952e+03 -5.29347130e+03 -5.52236309e+03 -4.99743194e+03 -5.25077019e+03 -5.50410844e+03 -5.75744669e+03 
        </DataArray>
      </PointData>
    </Piece>
    <Piece NumberOfPoints="16" NumberOfCells="9">
      <Points>
        <DataArray type="Float64" NumberOfComponents="3" format="ascii">
          2.50000000e+00 5.00000000e+00 0.00000000e+00 
3.33333325e+00 5.00000000e+00 0.00000000e+00 
4.16666651e+00 5.00000000e+00 0.00000000e+00 
5.00000000e+00 5.00000000e+00 0.00000000e+00 
2.50000000e+00 5.33333349e+00 0.00000000e+00 
3.33333325e+00 5.33333349e+00 0.00000000e+00 
4.16666651e+00 5.33333349e+00 0.00000000e+00 
5.00000000e+00 5.33333349e+00 0.00000000e+00 
2.50000000e+00 5.66666651e+00 0.00000000e+00 
3.33333325e+00 5.66666651e+00 0.00000000e+00 
4.16666651e+00 5.66666651e+00 0.00000000e+00 
5.00000000e+00 5.66666651e+00 0.00000000e+00 
2.50000000e+00 6.00000000e+00 0.00000000e+00 
3.33333325e+00 6.00000000e+00 0.00000000e+00 
4.16666651e+00 6.00000000e+00 0.00000000e+00 
5.00000000e+00 6.00000000e+00 0.00000000e+00 

        </DataArray>
      </Points>
      <Cells>
        <DataArray type="Int32" Name="connectivity" format="ascii">
0 1 5 4
4 5 9 8
8 9 13 12
1 2 6 5
5 6 10 9
9 10 14 13
2 3 7 6
6 7 11 10
10 11 15 14

        </DataArray>
        <DataArray type="Int32" Name="offsets" format="ascii">
4 8 12 16 20 24 28 32 36 
        </DataArray>
        <DataArray type="UInt8" Name="types" format="ascii">
9 9 9 9 9 9 9 9 9 
        </DataArray>
      </Cells>
      <PointData>
        <DataArray type="Float64" Name="u">
          2.01698794e+02 1.95424312e+02 1.96414331e+02 1.90055331e+02 1.60250120e+02 1.57474070e+02 1.60623252e+02 1.60707196e+02 9.62882740e+01 1.02904156e+02 1.11306895e+02 1.20331840e+02 0.00000000e+00 5.15404509e+01 6.05980232e+01 8.17443989e+01 
        </DataArray>
        <DataArray type="Float64" Name="v">
          4.13348661e+00 9.73761919e+00 1.15371872e+01 1.19615766e+01 2.94330340e+00 1.10658522e+01 1.26611513e+01 1.07151670e+01 3.29405025e+00 1.06373942e+01 1.07762131e+01 9.19152743e+00 0.00000000e+00 3.36007558e-01 4.39708949e+00 8.27904590e+00 
        </DataArray>
        <DataArray type="Float64" Name="p">
          -5.19105137e+03 -5.36859212e+03 -5.54613287e+03 -5.72367361e+03 -5.82220476e+03 -5.71160893e+03 -5.60101311e+03 -5.49041729e+03 -6.45335815e+03 -6.05462575e+03 -5.65589336e+03 -5.25716096e+03 -7.08451154e+03 -6.39764257e+03 -5.71077360e+03 -5.02390464e+03 
        </DataArray>
      </PointData>
    </Piece>
    <Piece NumberOfPoints="16" NumberOfCells="9">
      <Points>
        <DataArray type="Float64" NumberOfComponents="3" format="ascii">
          2.50000000e+00 6.00000000e+00 0.00000000e+00 
3.33333325e+00 6.00000000e+00 0.00000000e+00 
4.16666651e+00 6.00000000e+00 0.00000000e+00 
5.00000000e+00 6.00000000e+00 0.00000000e+00 
2.50000000e+00 6.33333349e+00 0.00000000e+00 
3.33333325e+00 6.33333349e+00 0.00000000e+00 
4.16666651e+00 6.33333349e+00 0.00000000e+00 
5.00000000e+00 6.33333349e+00 0.00000000e+00 
2.50000000e+00 6.66666651e+00 0.00000000e+00 
3.33333325e+00 6.66666651e+00 0.00000000e+00 
4.16666651e+00 6.66666651e+00 0.00000000e+00 
5.00000000e+00 6.66666651e+00 0.00000000e+00 
2.50000000e+00 7.00000000e+00 0.00000000e+00 
3.33333325e+00 7.00000000e+00 0.00000000e+00 
4.16666651e+00 7.00000000e+00 0.00000000e+00 
5.00000000e+00 7.00000000e+00 0.00000000e+00 

        </DataArray>
      </Points>
      <Cells>
        <DataArray type="Int32" Name="connectivity" format="ascii">
0 1 5 4
4 5 9 8
8 9 13 12
1 2 6 5
5 6 10 9
9 10 14 13
2 3 7 6
6 7 11 10
10 11 15 14

        </DataArray>
        <DataArray type="Int32" Name="offsets" format="ascii">
4 8 12 16 20 24 28 32 36 
        </DataArray>
        <DataArray type="UInt8" Name="types" format="ascii">
9 9 9 9 9 9 9 9 9 
        </DataArray>
      </Cells>
      <PointData>
        <DataArray type="Float64" Name="u">
          0.00000000e+00 5.15404509e+01 6.05980232e+01 8.17443989e+01 0.00000000e+00 1.46358788e+01 2.58913408e+01 4.50179635e+01 0.00000000e+00 2.06837476e-01 6.70322172e+00 1.83105750e+01 0.00000000e+00 -5.08489578e+00 -3.51650981e+00 -8.67226273e-01 
        </DataArray>
        <DataArray type="Float64" Name="v">
          0.00000000e+00 3.36007558e-01 4.39708949e+00 8.27904590e+00 0.00000000e+00 -1.26923411e+01 -4.25692663e+00 5.03524627e+00 0.00000000e+00 -1.71362526e+01 -8.45401295e+00 1.24549507e+00 0.00000000e+00 -1.60678182e+01 -1.14369521e+01 -3.35246724e+00 
        </DataArray>
        <DataArray type="Float64" Name="p">
          -6.98555092e+03 -6.39022643e+03 -5.79490193e+03 -5.19957744e+03 -6.62575154e+03 -6.21879018e+03 -5.81182882e+03 -5.40486746e+03 -6.26595215e+03 -6.04735393e+03 -5.82875570e+03 -5.61015747e+03 -5.90615277e+03 -5.87591768e+03 -5.84568258e+03 -5.81544749e+03 
        </DataArray>
      </PointData>
    </Piece>
    <Piece NumberOfPoints="16" NumberOfCells="9">
      <Points>
        <DataArray type="Float64" NumberOfComponents="3" format="ascii">
          2.50000000e+00 7.00000000e+00 0.00000000e+00 
3.33333325e+00 7.00000000e+00 0.00000000e+00 
4.16666651e+00 7.00000000e+00 0.00000000e+00 
5.00000000e+00 7.00000000e+00 0.00000000e+00 
2.50000000e+00 7.33333349e+00 0.00000000e+00 
3.33333325e+00 7.33333349e+00 0.00000000e+00 
4.16666651e+00 7.33333349e+00 0.00000000e+00 
5.00000000e+00 7.33333349e+00 0.00000000e+00 
2.50000000e+00 7.66666651e+00 0.00000000e+00 
3.33333325e+00 7.66666651e+00 0.00000000e+00 
4.16666651e+00 7.66666651e+00 0.00000000e+00 
5.00000000e+00 7.66666651e+00 0.00000000e+00 
2.50000000e+00 8.00000000e+00 0.00000000e+00 
3.33333325e+00 8.00000000e+00 0.00000000e+00 
4.16666651e+00 8.00000000e+00 0.00000000e+00 
5.00000000e+00 8.00000000e+00 0.00000000e+00 

        </DataArray>
      </Points>
      <Cells>
        <DataArray type="Int32" Name="connectivity" format="ascii">
0 1 5 4
4 5 9 8
8 9 13 12
1 2 6 5
5 6 10 9
9 10 14 13
2 3 7 6
6 7 11 10
10 11 15 14

        </DataArray>
        <DataArray type="Int32" Name="offsets" format="ascii">
4 8 12 16 20 24 28 32 36 
        </DataArray>
        <DataArray type="UInt8" Name="types" format="ascii">
9 9 9 9 9 9 9 9 9 
        </DataArray>
      </Cells>
      <PointData>
        <DataArray type="Float64" Name="u">
          0.00000000e+00 -5.08489578e+00 -3.51650981e+00 -8.67226273e-01 0.00000000e+00 -7.36463885e+00 -9.65724212e+00 -1.23333290e+01 0.00000000e+00 -7.92425906e+00 -1.23666037e+01 -1.84431289e+01 0.00000000e+00 -7.33782579e+00 -1.23277562e+01 -1.98280772e+01 
        </DataArray>
        <DataArray type="Float64" Name="v">
          0.00000000e+00 -1.60678182e+01 -1.14369521e+01 -3.35246724e+00 0.00000000e+00 -1.32084390e+01 -1.08034697e+01 -5.09468703e+00 0.00000000e+00 -1.02577094e+01 -8.93965736e+00 -5.08237922e+00 0.00000000e+00 -6.28706755e+00 -5.97428901e+00 -3.87283762e+00 
        </DataArray>
        <DataArray type="Float64" Name="p">
          -5.95147302e+03 -5.86489523e+03 -5.77831745e+03 -5.69173966e+03 -5.85314422e+03 -5.77871051e+03 -5.70427681e+03 -5.62984311e+03 -5.75481542e+03 -5.69252579e+03 -5.63023617e+03 -5.56794655e+03 -5.65648662e+03 -5.60634107e+03 -5.55619553e+03 -5.50604999e+03 
        </DataArray>
      </PointData>
    </Piece>
    <Piece NumberOfPoints="16" NumberOfCells="9">
      <Points>
        <DataArray type="Float64" NumberOfComponents="3" format="ascii">
          2.50000000e+00 8.00000000e+00 0.00000000e+00 
3.33333325e+00 8.00000000e+00 0.00000000e+00 
4.16666651e+00 8.00000000e+00 0.00000000e+00 
5.00000000e+00 8.00000000e+00 0.00000000e+00 
2.50000000e+00 8.33333302e+00 0.00000000e+00 
3.33333325e+00 8.33333302e+00 0.00000000e+00 
4.16666651e+00 8.33333302e+00 0.00000000e+00 
5.00000000e+00 8.33333302e+00 0.00000000e+00 
2.50000000e+00 8.66666698e+00 0.00000000e+00 
3.33333325e+00 8.66666698e+00 0.00000000e+00 
4.16666651e+00 8.66666698e+00 0.00000000e+00 
5.00000000e+00 8.66666698e+00 0.00000000e+00 
2.50000000e+00 9.00000000e+00 0.00000000e+00 
3.33333325e+00 9.00000000e+00 0.00000000e+00 
4.16666651e+00 9.00000000e+00 0.00000000e+00 
5.00000000e+00 9.00000000e+00 0.00000000e+00 

        </DataArray>
      </Points>
      <Cells>
        <DataArray type="Int32" Name="connectivity" format="ascii">
0 1 5 4
4 5 9 8
8 9 13 12
1 2 6 5
5 6 10 9
9 10 14 13
2 3 7 6
6 7 11 10
10 11 15 14

        </DataArray>
        <DataArray type="Int32" Name="offsets" format="ascii">
4 8 12 16 20 24 28 32 36 
        </DataArray>
        <DataArray type="UInt8" Name="types" format="ascii">
9 9 9 9 9 9 9 9 9 
        </DataArray>
      </Cells>
      <PointData>
        <DataArray type="Float64" Name="u">
          0.00000000e+00 -7.33782579e+00 -1.23277562e+01 -1.98280772e+01 0.00000000e+00 -5.82489377e+00 -9.94575461e+00 -1.70358347e+01 0.00000000e+00 -3.38855399e+00 -5.63627131e+00 -1.02355623e+01 0.00000000e+00 0.00000000e+00 0.00000000e+00 0.00000000e+00 
        </DataArray>
        <DataArray type="Float64" Name="v">
          0.00000000e+00 -6.28706755e+00 -5.97428901e+00 -3.87283762e+00 0.00000000e+00 -2.89425082e+00 -2.91450919e+00 -1.97029928e+00 0.00000000e+00 -9.94752180e-01 -1.07165206e+00 -7.77872500e-01 0.00000000e+00 0.00000000e+00 0.00000000e+00 0.00000000e+00 
        </DataArray>
        <DataArray type="Float64" Name="p">
          -5.67207571e+03 -5.61082051e+03 -5.54956531e+03 -5.48831012e+03 -5.68624372e+03 -5.62507681e+03 -5.56390991e+03 -5.50274300e+03 -5.70041172e+03 -5.63933311e+03 -5.57825450e+03 -5.51717589e+03 -5.71457973e+03 -5.65358941e+03 -5.59259910e+03 -5.53160878e+03 
        </DataArray>
      </PointData>
    </Piece>
    <Piece NumberOfPoints="16" NumberOfCells="9">
      <Points>
        <DataArray type="Float64" NumberOfComponents="3" format="ascii">
          5.00000000e+00 0.00000000e+00 0.00000000e+00 
5.83333349e+00 0.00000000e+00 0.00000000e+00 
6.66666651e+00 0.00000000e+00 0.00000000e+00 
7.50000000e+00 0.00000000e+00 0.00000000e+00 
5.00000000e+00 3.33333343e-01 0.00000000e+00 
5.83333349e+00 3.33333343e-01 0.00000000e+00 
6.66666651e+00 3.33333343e-01 0.00000000e+00 
7.50000000e+00 3.33333343e-01 0.00000000e+00 
5.00000000e+00 6.66666687e-01 0.00000000e+00 
5.83333349e+00 6.66666687e-01 0.00000000e+00 
6.66666651e+00 6.66666687e-01 0.00000000e+00 
7.50000000e+00 6.66666687e-01 0.00000000e+00 
5.00000000e+00 1.00000000e+00 0.00000000e+00 
5.83333349e+00 1.00000000e+00 0.00000000e+00 
6.66666651e+00 1.00000000e+00 0.00000000e+00 
7.50000000e+00 1.00000000e+00 0.00000000e+00 

        </DataArray>
      </Points>
      <Cells>
        <DataArray type="Int32" Name="connectivity" format="ascii">
0 1 5 4
4 5 9 8
8 9 13 12
1 2 6 5
5 6 10 9
9 10 14 13
2 3 7 6
6 7 11 10
10 11 15 14

        </DataArray>
        <DataArray type="Int32" Name="offsets" format="ascii">
4 8 12 16 20 24 28 32 36 
        </DataArray>
        <DataArray type="UInt8" Name="types" format="ascii">
9 9 9 9 9 9 9 9 9 
        </DataArray>
      </Cells>
      <PointData>
        <DataArray type="Float64" Name="u">