<?xml version="1.0"?>
<VTKFile type="UnstructuredGrid" version="0.1" byte_order="LittleEndian">
  <UnstructuredGrid>
    <Piece NumberOfPoints="16" NumberOfCells="9">
      <Points>
        <DataArray type="Float64" NumberOfComponents="3" format="ascii">
          0.00000000e+00 3.00000000e+00 0.00000000e+00 
8.33333313e-01 3.00000000e+00 0.00000000e+00 
1.66666663e+00 3.00000000e+00 0.00000000e+00 
2.50000000e+00 3.00000000e+00 0.00000000e+00 
0.00000000e+00 3.33333325e+00 0.00000000e+00 
8.33333313e-01 3.33333325e+00 0.00000000e+00 
1.66666663e+00 3.33333325e+00 0.00000000e+00 
2.50000000e+00 3.33333325e+00 0.00000000e+00 
0.00000000e+00 3.66666675e+00 0.00000000e+00 
8.33333313e-01 3.66666675e+00 0.00000000e+00 
1.66666663e+00 3.66666675e+00 0.00000000e+00 
2.50000000e+00 3.66666675e+00 0.00000000e+00 
0.00000000e+00 4.00000000e+00 0.00000000e+00 
8.33333313e-01 4.00000000e+00 0.00000000e+00 
1.66666663e+00 4.00000000e+00 0.00000000e+00 
2.50000000e+00 4.00000000e+00 0.00000000e+00 

        </DataArray>
      </Points>
      <Cells>
        <DataArray type="Int32" Name="connectivity" format="ascii">
0 1 5 4
4 5 9 8
8 9 13 12
1 2 6 5
5 6 10 9
9 10 14 13
2 3 7 6
6 7 11 10
10 11 15 14

        </DataArray>
        <DataArray type="Int32" Name="offsets" format="ascii">
4 8 12 16 20 24 28 32 36 
        </DataArray>
        <DataArray type="UInt8" Name="types" format="ascii">
9 9 9 9 9 9 9 9 9 
        </DataArray>
      </Cells>
      <PointData>
        <DataArray type="Float64" Name="u">
          0.00000000e+00 0.00000000e+00 0.00000000e+00 0.00000000e+00 8.88888889e+01 8.69612156e+01 8.73729319e+01 8.18533778e+01 1.55555556e+02 1.53048126e+02 1.53885704e+02 1.48308217e+02 2.00000000e+02 1.97596175e+02 1.98535938e+02 1.93977974e+02 
        </DataArray>
        <DataArray type="Float64" Name="v">
          0.00000000e+00 0.00000000e+00 0.00000000e+00 0.00000000e+00 0.00000000e+00 6.09276305e-01 1.49222552e+00 1.20292380e+00 0.00000000e+00 5.93634382e-01 1.66171162e+00 2.71612686e+00 0.00000000e+00 1.58847617e+00 3.34869489e+00 4.73671626e+00 
        </DataArray>
        <DataArray type="Float64" Name="p">
          -1.91358778e+03 -3.02684695e+03 -4.14010612e+03 -5.25336529e+03 -1.94839304e+03 -3.06585096e+03 -4.18330888e+03 -5.30076680e+03 -1.98319829e+03 -3.10485496e+03 -4.22651163e+03 -5.34816830e+03 -2.01800355e+03 -3.14385896e+03 -4.26971438e+03 -5.39556980e+03 
        </DataArray>
      </PointData>
    </Piece>
    <Piece NumberOfPoints="16" NumberOfCells="9">
      <Points>
        <DataArray type="Float64" NumberOfComponents="3" format="ascii">
          0.00000000e+00 4.00000000e+00 0.00000000e+00 
8.33333313e-01 4.00000000e+00 0.00000000e+00 
1.66666663e+00 4.00000000e+00 0.00000000e+00 
2.50000000e+00 4.00000000e+00 0.00000000e+00 
0.00000000e+00 4.33333349e+00 0.00000000e+00 
8.33333313e-01 4.33333349e+00 0.00000000e+00 
1.66666663e+00 4.33333349e+00 0.00000000e+00 
2.50000000e+00 4.33333349e+00 0.00000000e+00 
0.00000000e+00 4.66666651e+00 0.00000000e+00 
8.33333313e-01 4.66666651e+00 0.00000000e+00 
1.66666663e+00 4.66666651e+00 0.00000000e+00 
2.50000000e+00 4.66666651e+00 0.00000000e+00 
0.00000000e+00 5.00000000e+00 0.00000000e+00 
8.33333313e-01 5.00000000e+00 0.00000000e+00 
1.66666663e+00 5.00000000e+00 0.00000000e+00 
2.50000000e+00 5.00000000e+00 0.00000000e+00 

        </DataArray>
      </Points>
      <Cells>
        <DataArray type="Int32" Name="connectivity" format="ascii">
0 1 5 4
4 5 9 8
8 9 13 12
1 2 6 5
5 6 10 9
9 10 14 13
2 3 7 6
6 7 11 10
10 11 15 14

        </DataArray>
        <DataArray type="Int32" Name="offsets" format="ascii">
4 8 12 16 20 24 28 32 36 
        </DataArray>
        <DataArray type="UInt8" Name="types" format="ascii">
9 9 9 9 9 9 9 9 9 
        </DataArray>
      </Cells>
      <PointData>
        <DataArray type="Float64" Name="u">
          2.00000000e+02 1.97596175e+02 1.98535938e+02 1.93977974e+02 2.22222222e+02 2.20646190e+02 2.21478481e+02 2.19061020e+02 2.22222222e+02 2.21775171e+02 2.22732687e+02 2.22524091e+02 2.00000000e+02 2.00729681e+02 2.01868466e+02 2.03935606e+02 
        </DataArray>
        <DataArray type="Float64" Name="v">
          0.00000000e+00 1.58847617e+00 3.34869489e+00 4.73671626e+00 0.00000000e+00 2.23494365e+00 4.08702638e+00 6.09009212e+00 0.00000000e+00 2.23451403e+00 4.26738410e+00 6.01961901e+00 0.00000000e+00 2.13430355e+00 3.74179492e+00 6.18570249e+00 
        </DataArray>
        <DataArray type="Float64" Name="p">
          -2.01755452e+03 -3.16260249e+03 -4.30765045e+03 -5.45269842e+03 -2.21429688e+03 -3.35002641e+03 -4.48575595e+03 -5.62148549e+03 -2.41103923e+03 -3.53745034e+03 -4.66386146e+03 -5.79027257e+03 -2.60778158e+03 -3.72487427e+03 -4.84196696e+03 -5.95905964e+03 
        </DataArray>
      </PointData>
    </Piece>
    <Piece NumberOfPoints="16" NumberOfCells="9">
      <Points>
        <DataArray type="Float64" NumberOfComponents="3" format="ascii">
          0.00000000e+00 5.00000000e+00 0.00000000e+00 
8.33333313e-01 5.00000000e+00 0.00000000e+00 
1.66666663e+00 5.00000000e+00 0.00000000e+00 
2.50000000e+00 5.00000000e+00 0.00000000e+00 
0.00000000e+00 5.33333349e+00 0.00000000e+00 
8.33333313e-01 5.33333349e+00 0.00000000e+00 
1.66666663e+00 5.33333349e+00 0.00000000e+00 
2.50000000e+00 5.33333349e+00 0.00000000e+00 
0.00000000e+00 5.66666651e+00 0.00000000e+00 
8.33333313e-01 5.66666651e+00 0.00000000e+00 
1.66666663e+00 5.66666651e+00 0.00000000e+00 
2.50000000e+00 5.66666651e+00 0.00000000e+00 
0.00000000e+00 6.00000000e+00 0.00000000e+00 
8.33333313e-01 6.00000000e+00 0.00000000e+00 
1.66666663e+00 6.00000000e+00 0.00000000e+00 
2.50000000e+00 6.00000000e+00 0.00000000e+00 

        </DataArray>
      </Points>
      <Cells>
        <DataArray type="Int32" Name="connectivity" format="ascii">
0 1 5 4
4 5 9 8
8 9 13 12
1 2 6 5
5 6 10 9
9 10 14 13
2 3 7 6
6 7 11 10
10 11 15 14

        </DataArray>
        <DataArray type="Int32" Name="offsets" format="ascii">
4 8 12 16 20 24 28 32 36 
        </DataArray>
        <DataArray type="UInt8" Name="types" format="ascii">
9 9 9 9 9 9 9 9 9 
        </DataArray>
      </Cells>
      <PointData>
        <DataArray type="Float64" Name="u">
          2.00000000e+02 2.00729681e+02 2.01868466e+02 2.03935606e+02 1.55555556e+02 1.57845993e+02 1.58308715e+02 1.63146455e+02 8.88888889e+01 9.20710290e+01 9.13869155e+01 9.98311186e+01 0.00000000e+00 0.00000000e+00 0.00000000e+00 0.00000000e+00 
        </DataArray>
        <DataArray type="Float64" Name="v">
          0.00000000e+00 2.13430355e+00 3.74179492e+00 6.18570249e+00 0.00000000e+00 9.48516478e-01 2.15661854e+00 4.01902100e+00 0.00000000e+00 1.10316227e+00 1.58202301e+00 4.10203344e+00 0.00000000e+00 0.00000000e+00 0.00000000e+00 0.00000000e+00 
        </DataArray>
        <DataArray type="Float64" Name="p">
          -2.64638734e+03 -3.76484143e+03 -4.88329552e+03 -6.00174960e+03 -2.67035077e+03 -3.81100213e+03 -4.95165349e+03 -6.09230484e+03 -2.69431419e+03 -3.85716282e+03 -5.02001145e+03 -6.18286008e+03 -2.71827762e+03 -3.90332352e+03 -5.08836942e+03 -6.27341532e+03 
        </DataArray>
      </PointData>
    </Piece>
    <Piece NumberOfPoints="16" NumberOfCells="9">
      <Points>
        <DataArray type="Float64" NumberOfComponents="3" format="ascii">
          2.50000000e+00 0.00000000e+00 0.00000000e+00 
3.33333325e+00 0.00000000e+00 0.00000000e+00 
4.16666651e+00 0.00000000e+00 0.00000000e+00 
5.00000000e+00 0.00000000e+00 0.00000000e+00 
2.50000000e+00 3.33333343e-01 0.00000000e+00 
3.33333325e+00 3.33333343e-01 0.00000000e+00 
4.16666651e+00 3.33333343e-01 0.00000000e+00 
5.00000000e+00 3.33333343e-01 0.00000000e+00 
2.50000000e+00 6.66666687e-01 0.00000000e+00 
3.33333325e+00 6.66666687e-01 0.00000000e+00 
4.16666651e+00 6.66666687e-01 0.00000000e+00 
5.00000000e+00 6.66666687e-01 0.00000000e+00 
2.50000000e+00 1.00000000e+00 0.00000000e+00 
3.33333325e+00 1.00000000e+00 0.00000000e+00 
4.16666651e+00 1.00000000e+00 0.00000000e+00 
5.00000000e+00 1.00000000e+00 0.00000000e+00 

        </DataArray>
      </Points>
      <Cells>
        <DataArray type="Int32" Name="connectivity" format="ascii">
0 1 5 4
4 5 9 8
8 9 13 12
1 2 6 5
5 6 10 9
9 10 14 13
2 3 7 6
6 7 11 10
10 11 15 14

        </DataArray>
        <DataArray type="Int32" Name="offsets" format="ascii">
4 8 12 16 20 24 28 32 36 
        </DataArray>
        <DataArray type="UInt8" Name="types" format="ascii">
9 9 9 9 9 9 9 9 9 
        </DataArray>
      </Cells>
      <PointData>
        <DataArray type="Float64" Name="u">
          0.00000000e+00 0.00000000e+00 0.00000000e+00 0.00000000e+00 0.00000000e+00 -2.23542310e+00 -3.97315338e+00 -7.00803793e+00 0.00000000e+00 -4.02503342e+00 -7.31691391e+00 -1.21560013e+01 0.00000000e+00 -5.36764026e+00 -9.66676443e+00 -1.52937492e+01 
        </DataArray>
        <DataArray type="Float64" Name="v">
          0.00000000e+00 0.00000000e+00 0.00000000e+00 0.00000000e+00 0.00000000e+00 6.63810095e-01 7.20813652e-01 4.69035653e-01 0.00000000e+00 2.03425305e+00 2.03979153e+00 1.34570602e+00 0.00000000e+00 4.53201161e+00 4.23126821e+00 2.82450728e+00 
        </DataArray>
        <DataArray type="Float64" Name="p">
          -4.65021623e+03 -4.62732916e+03 -4.60444208e+03 -4.58155501e+03 -4.64061401e+03 -4.61769863e+03 -4.59478324e+03 -4.57186786e+03 -4.63101179e+03 -4.60806810e+03 -4.58512440e+03 -4.56218071e+03 -4.62140957e+03 -4.59843757e+03 -4.57546556e+03 -4.55249355e+03 
        </DataArray>
      </PointData>
    </Piece>
    <Piece NumberOfPoints="16" NumberOfCells="9">
      <Points>
        <DataArray type="Float64" NumberOfComponents="3" format="ascii">
          2.50000000e+00 1.00000000e+00 0.00000000e+00 
3.33333325e+00 1.00000000e+00 0.00000000e+00 
4.16666651e+00 1.00000000e+00 0.00000000e+00 
5.00000000e+00 1.00000000e+00 0.00000000e+00 
2.50000000e+00 1.33333337e+00 0.00000000e+00 
3.33333325e+00 1.33333337e+00 0.00000000e+00 
4.16666651e+00 1.33333337e+00 0.00000000e+00 
5.00000000e+00 1.33333337e+00 0.00000000e+00 
2.50000000e+00 1.66666663e+00 0.00000000e+00 
3.33333325e+00 1.66666663e+00 0.00000000e+00 
4.16666651e+00 1.66666663e+00 0.00000000e+00 
5.00000000e+00 1.66666663e+00 0.00000000e+00 
2.50000000e+00 2.00000000e+00 0.00000000e+00 
3.33333325e+00 2.00000000e+00 0.00000000e+00 
4.16666651e+00 2.00000000e+00 0.00000000e+00 
5.00000000e+00 2.00000000e+00 0.00000000e+00 

        </DataArray>
      </Points>
      <Cells>
        <DataArray type="Int32" Name="connectivity" format="ascii">
0 1 5 4
4 5 9 8
8 9 13 12
1 2 6 5
5 6 10 9
9 10 14 13
2 3 7 6
6 7 11 10
10 11 15 14

        </DataArray>
        <DataArray type="Int32" Name="offsets" format="ascii">
4 8 12 16 20 24 28 32 36 
        </DataArray>
        <DataArray type="UInt8" Name="types" format="ascii">
9 9 9 9 9 9 9 9 9 
        </DataArray>
      </Cells>
      <PointData>
        <DataArray type="Float64" Name="u">
          0.00000000e+00 -5.36764026e+00 -9.66676443e+00 -1.52937492e+01 0.00000000e+00 -6.24267179e+00 -1.07359784e+01 -1.62174304e+01 0.00000000e+00 -6.42526015e+00 -1.00949125e+01 -1.43140700e+01 0.00000000e+00 -5.42577402e+00 -7.06047656e+00 -8.84011640e+00 
        </DataArray>
        <DataArray type="Float64" Name="v">
          0.00000000e+00 4.53201161e+00 4.23126821e+00 2.82450728e+00 0.00000000e+00 7.72127797e+00 6.64564451e+00 4.20802693e+00 0.00000000e+00 1.03338571e+01 8.50241163e+00 5.05375326e+00 0.00000000e+00 1.33609258e+01 1.00261627e+01 5.24442774e+00 
        </DataArray>
        <DataArray type="Float64" Name="p">
          -4.60874005e+03 -4.59162663e+03 -4.57451321e+03 -4.55739979e+03 -4.67182536e+03 -4.64296633e+03 -4.61410730e+03 -4.58524827e+03 -4.73491067e+03 -4.69430604e+03 -4.65370140e+03 -4.61309676e+03 -4.79799599e+03 -4.74564574e+03 -4.69329550e+03 -4.64094525e+03 
        </DataArray>
      </PointData>
    </Piece>
    <Piece NumberOfPoints="16" NumberOfCells="9">
      <Points>
        <DataArray type="Float64" NumberOfComponents="3" format="ascii">
          2.50000000e+00 2.00000000e+00 0.00000000e+00 
3.33333325e+00 2.00000000e+00 0.00000000e+00 
4.16666651e+00 2.00000000e+00 0.00000000e+00 
5.00000000e+00 2.00000000e+00 0.00000000e+00 
2.50000000e+00 2.33333325e+00 0.00000000e+00 
3.33333325e+00 2.33333325e+00 0.00000000e+00 
4.16666651e+00 2.33333325e+00 0.00000000e+00 
5.00000000e+00 2.33333325e+00 0.00000000e+00 
2.50000000e+00 2.66666675e+00 0.00000000e+00 
3.33333325e+00 2.66666675e+00 0.00000000e+00 
4.16666651e+00 2.66666675e+00 0.00000000e+00 
5.00000000e+00 2.66666675e+00 0.00000000e+00 
2.50000000e+00 3.00000000e+00 0.00000000e+00 
3.33333325e+00 3.00000000e+00 0.00000000e+00 
4.16666651e+00 3.00000000e+00 0.00000000e+00 
5.00000000e+00 3.00000000e+00 0.00000000e+00 

        </DataArray>
      </Points>
      <Cells>
        <DataArray type="Int32" Name="connectivity" format="ascii">
0 1 5 4
4 5 9 8
8 9 13 12
1 2 6 5
5 6 10 9
9 10 14 13
2 3 7 6
6 7 11 10
10 11 15 14

        </DataArray>
        <DataArray type="Int32" Name="offsets" format="ascii">
4 8 12 16 20 24 28 32 36 
        </DataArray>
        <DataArray type="UInt8" Name="types" format="ascii">
9 9 9 9 9 9 9 9 9 
        </DataArray>
      </Cells>
      <PointData>
        <DataArray type="Float64" Name="u">
          0.00000000e+00 -5.42577402e+00 -7.06047656e+00 -8.84011640e+00 0.00000000e+00 -2.21037939e+00 -9.65029331e-01 2.40203537e+00 0.00000000e+00 7.84248708e+00 1.17463075e+01 2.02771599e+01 0.00000000e+00 3.67652366e+01 3.72803168e+01 4.79918406e+01 
        </DataArray>
        <DataArray type="Float64" Name="v">
          0.00000000e+00 1.33609258e+01 1.00261627e+01 5.24442774e+00 0.00000000e+00 1.54020807e+01 9.40883857e+00 3.85267322e+00 0.00000000e+00 1.36940403e+01 8.37875285e+00 2.81958168e+00 0.00000000e+00 5.81328601e+00 4.18945388e+00 2.52174979e+00 
        </DataArray>
        <DataArray type="Float64" Name="p">
          -4.77500724e+03 -4.75414042e+03 -4.73327359e+03 -4.71240676e+03 -5.01187222e+03 -4.87758546e+03 -4.74329870e+03 -4.60901194e+03 -5.24873719e+03 -5.00103050e+03 -4.75332380e+03 -4.50561711e+03 -5.48560217e+03 -5.12447554e+03 -4.76334891e+03 -4.40222228e+03 
        </DataArray>
      </PointData>
    </Piece>
    <Piece NumberOfPoints="16" NumberOfCells="9">
      <Points>
        <DataArray type="Float64" NumberOfComponents="3" format="ascii">
          2.50000000e+00 3.00000000e+00 0.00000000e+00 
3.33333325e+00 3.00000000e+00 0.00000000e+00 
4.16666651e+00 3.00000000e+00 0.00000000e+00 
5.00000000e+00 3.00000000e+00 0.00000000e+00 
2.50000000e+00 3.33333325e+00 0.00000000e+00 
3.33333325e+00 3.33333325e+00 0.00000000e+00 
4.16666651e+00 3.33333325e+00 0.00000000e+00 
5.00000000e+00 3.33333325e+00 0.00000000e+00 
2.50000000e+00 3.66666675e+00 0.00000000e+00 
3.33333325e+00 3.66666675e+00 0.00000000e+00 
4.16666651e+00 3.66666675e+00 0.00000000e+00 
5.00000000e+00 3.66666675e+00 0.00000000e+00 
2.50000000e+00 4.00000000e+00 0.00000000e+00 
3.33333325e+00 4.00000000e+00 0.00000000e+00 
4.16666651e+00 4.00000000e+00 0.00000000e+00 
5.00000000e+00 4.00000000e+00 0.00000000e+00 

        </DataArray>
      </Points>
      <Cells>
        <DataArray type="Int32" Name="connectivity" format="ascii">
0 1 5 4
4 5 9 8
8 9 13 12
1 2 6 5
5 6 10 9
9 10 14 13
2 3 7 6
6 7 11 10
10 11 15 14

        </DataArray>
        <DataArray type="Int32" Name="offsets" format="ascii">
4 8 12 16 20 24 28 32 36 
        </DataArray>
        <DataArray type="UInt8" Name="types" format="ascii">
9 9 9 9 9 9 9 9 9 
        </DataArray>
      </Cells>
      <PointData>
        <DataArray type="Float64" Name="u">
          0.00000000e+00 3.67652366e+01 3.72803168e+01 4.79918406e+01 8.18533778e+01 8.36229182e+01 8.20567505e+01 8.16916806e+01 1.48308217e+02 1.40688890e+02 1.34993233e+02 1.26423651e+02 1.93977974e+02 1.85393806e+02 1.79871887e+02 1.68178646e+02 
        </DataArray>
        <DataArray type="Float64" Name="v">
          0.00000000e+00 5.81328601e+00 4.18945388e+00 2.52174979e+00 1.20292380e+00 -1.63952788e-01 3.10518341e+00 6.28937262e+00 2.71612686e+00 -5.55008391e-03 2.17769665e+00 7.37539502e+00 4.73671626e+00 4.12116051e+00 7.15698558e+00 1.15373260e+01 
        </DataArray>
        <DataArray type="Float64" Name="p">
          -5.52006744e+03 -5.07001024e+03 -4.61995305e+03 -4.16989585e+03 -5.26560572e+03 -4.98933523e+03 -4.71306474e+03 -4.43679426e+03 -5.01114400e+03 -4.90866022e+03 -4.80617644e+03 -4.70369266e+03 -4.75668228e+03 -4.82798521e+03 -4.89928814e+03 -4.97059107e+03 
        </DataArray>
      </PointData>
    </Piece>
    <Piece NumberOfPoints="16" NumberOfCells="9">
      <Points>
        <DataArray type="Float64" NumberOfComponents="3" format="ascii">
          2.50000000e+00 4.00000000e+00 0.00000000e+00 
3.33333325e+00 4.00000000e+00 0.00000000e+00 
4.16666651e+00 4.00000000e+00 0.00000000e+00 
5.00000000e+00 4.00000000e+00 0.00000000e+00 
2.50000000e+00 4.33333349e+00 0.00000000e+00 
3.33333325e+00 4.33333349e+00 0.00000000e+00 
4.16666651e+00 4.33333349e+00 0.00000000e+00 
5.00000000e+00 4.33333349e+00 0.00000000e+00 
2.50000000e+00 4.66666651e+00 0.00000000e+00 
3.33333325e+00 4.66666651e+00 0.00000000e+00 
4.16666651e+00 4.66666651e+00 0.00000000e+00 
5.00000000e+00 4.66666651e+00 0.00000000e+00 
2.50000000e+00 5.00000000e+00 0.00000000e+00 
3.33333325e+00 5.00000000e+00 0.00000000e+00 
4.16666651e+00 5.00000000e+00 0.00000000e+00 
5.00000000e+00 5.00000000e+00 0.00000000e+00 

        </DataArray>
      </Points>
      <Cells>
        <DataArray type="Int32" Name="connectivity" format="ascii">
0 1 5 4
4 5 9 8
8 9 13 12
1 2 6 5
5 6 10 9
9 10 14 13
2 3 7 6
6 7 11 10
10 11 15 14

        </DataArray>
        <DataArray type="Int32" Name="offsets" format="ascii">
4 8 12 16 20 24 28 32 36 
        </DataArray>
        <DataArray type="UInt8" Name="types" format="ascii">
9 9 9 9 9 9 9 9 9 
        </DataArray>
      </Cells>
      <PointData>
        <DataArray type="Float64" Name="u">
          1.93977974e+02 1.85393806e+02 1.79871887e+02 1.68178646e+02 2.19061020e+02 2.10867640e+02 2.06974980e+02 1.96447716e+02 2.22524091e+02 2.15861049e+02 2.14714368e+02 2.07033222e+02 2.03935606e+02 1.99085150e+02 2.02043931e+02 1.97541373e+02 
        </DataArray>
        <DataArray type="Float64" Name="v">
          4.73671626e+00 4.12116051e+00 7.15698558e+00 1.15373260e+01 6.09009212e+00 8.70606732e+00 1.13403486e+01 1.48662085e+01 6.01961901e+00 9.45387431e+00 1.35021387e+01 1.72632728e+01 6.18570249e+00 1.25189681e+01 1.56908956e+01 1.78956188e+01 
        </DataArray>
        <DataArray type="Float64" Name="p">
          -4.65271753e+03 -4.81040658e+03 -4.96809562e+03 -5.12578466e+03 -4.91479940e+03 -5.10992487e+03 -5.30505034e+03 -5.50017580e+03 -5.17688127e+03 -5.40944316e+03 -5.64200505e+03 -5.87456694e+03 -5.43896314e+03 -5.70896145e+03 -5.97895977e+03 -6.24895808e+03 
        </DataArray>
      </PointData>
    </Piece>
    <Piece NumberOfPoints="16" NumberOfCells="9">
      <Points>
        <DataArray type="Float64" NumberOfComponents="3" format="ascii">
          2.50000000e+00 5.00000000e+00 0.00000000e+00 
3.33333325e+00 5.00000000e+00 0.00000000e+00 
4.16666651e+00 5.00000000e+00 0.00000000e+00 
5.00000000e+00 5.00000000e+00 0.00000000e+00 
2.50000000e+00 5.33333349e+00 0.00000000e+00 
3.33333325e+00 5.33333349e+00 0.00000000e+00 
4.16666651e+00 5.33333349e+00 0.00000000e+00 
5.00000000e+00 5.33333349e+00 0.00000000e+00 
2.50000000e+00 5.66666651e+00 0.00000000e+00 
3.33333325e+00 5.66666651e+00 0.00000000e+00 
4.16666651e+00 5.66666651e+00 0.00000000e+00 
5.00000000e+00 5.66666651e+00 0.00000000e+00 
2.50000000e+00 6.00000000e+00 0.00000000e+00 
3.33333325e+00 6.00000000e+00 0.00000000e+00 
4.16666651e+00 6.00000000e+00 0.00000000e+00 
5.00000000e+00 6.00000000e+00 0.00000000e+00 

        </DataArray>
      </Points>
      <Cells>
        <DataArray type="Int32" Name="connectivity" format="ascii">
0 1 5 4
4 5 9 8
8 9 13 12
1 2 6 5
5 6 10 9
9 10 14 13
2 3 7 6
6 7 11 10
10 11 15 14

        </DataArray>
        <DataArray type="Int32" Name="offsets" format="ascii">
4 8 12 16 20 24 28 32 36 
        </DataArray>
        <DataArray type="UInt8" Name="types" format="ascii">
9 9 9 9 9 9 9 9 9 
        </DataArray>
      </Cells>
      <PointData>
        <DataArray type="Float64" Name="u">
          2.03935606e+02 1.99085150e+02 2.02043931e+02 1.97541373e+02 1.63146455e+02 1.62406973e+02 1.67928441e+02 1.70405393e+02 9.98311186e+01 1.07374251e+02 1.18267316e+02 1.29610245e+02 0.00000000e+00 5.30015351e+01 6.44176619e+01 8.79432398e+01 
        </DataArray>
        <DataArray type="Float64" Name="v">
          6.18570249e+00 1.25189681e+01 1.56908956e+01 1.78956188e+01 4.01902100e+00 1.25475846e+01 1.54984030e+01 1.52168107e+01 4.10203344e+00 1.23379458e+01 1.37459630e+01 1.31448061e+01 0.00000000e+00 1.02793060e+00 5.93630721e+00 1.07529197e+01 
        </DataArray>
        <DataArray type="Float64" Name="p">
          -5.61483404e+03 -5.83635265e+03 -6.05787125e+03 -6.27938986e+03 -6.24492313e+03 -6.20388765e+03 -6.16285217e+03 -6.12181669e+03 -6.87501222e+03 -6.57142265e+03 -6.26783308e+03 -5.96424352e+03 -7.50510131e+03 -6.93895765e+03 -6.37281400e+03 -5.80667034e+03 
        </DataArray>
      </PointData>
    </Piece>
    <Piece NumberOfPoints="16" NumberOfCells="9">
      <Points>
        <DataArray type="Float64" NumberOfComponents="3" format="ascii">
          2.50000000e+00 6.00000000e+00 0.00000000e+00 
3.33333325e+00 6.00000000e+00 0.00000000e+00 
4.16666651e+00 6.00000000e+00 0.00000000e+00 
5.00000000e+00 6.00000000e+00 0.00000000e+00 
2.50000000e+00 6.33333349e+00 0.00000000e+00 
3.33333325e+00 6.33333349e+00 0.00000000e+00 
4.16666651e+00 6.33333349e+00 0.00000000e+00 
5.00000000e+00 6.33333349e+00 0.00000000e+00 
2.50000000e+00 6.66666651e+00 0.00000000e+00 
3.33333325e+00 6.66666651e+00 0.00000000e+00 
4.16666651e+00 6.66666651e+00 0.00000000e+00 
5.00000000e+00 6.66666651e+00 0.00000000e+00 
2.50000000e+00 7.00000000e+00 0.00000000e+00 
3.33333325e+00 7.00000000e+00 0.00000000e+00 
4.16666651e+00 7.00000000e+00 0.00000000e+00 
5.00000000e+00 7.00000000e+00 0.00000000e+00 

        </DataArray>
      </Points>
      <Cells>
        <DataArray type="Int32" Name="connectivity" format="ascii">
0 1 5 4
4 5 9 8
8 9 13 12
1 2 6 5
5 6 10 9
9 10 14 13
2 3 7 6
6 7 11 10
10 11 15 14

        </DataArray>
        <DataArray type="Int32" Name="offsets" format="ascii">
4 8 12 16 20 24 28 32 36 
        </DataArray>
        <DataArray type="UInt8" Name="types" format="ascii">
9 9 9 9 9 9 9 9 9 
        </DataArray>
      </Cells>
      <PointData>
        <DataArray type="Float64" Name="u">
          0.00000000e+00 5.30015351e+01 6.44176619e+01 8.79432398e+01 0.00000000e+00 1.43320384e+01 2.66235480e+01 4.83385270e+01 0.00000000e+00 9.63821895e-02 6.73961811e+00 2.00083045e+01 0.00000000e+00 -4.85711567e+00 -3.49713998e+00 -1.88829261e-01 
        </DataArray>
        <DataArray type="Float64" Name="v">
          0.00000000e+00 1.02793060e+00 5.93630721e+00 1.07529197e+01 0.00000000e+00 -1.23495299e+01 -3.79711032e+00 6.28923648e+00 0.00000000e+00 -1.67522976e+01 -8.28293425e+00 1.76323900e+00 0.00000000e+00 -1.56602048e+01 -1.16321998e+01 -3.59511495e+00 
        </DataArray>
        <DataArray type="Float64" Name="p">
          -7.36343723e+03 -6.88962051e+03 -6.41580378e+03 -5.94198705e+03 -7.06765007e+03 -6.75496159e+03 -6.44227312e+03 -6.12958465e+03 -6.77186290e+03 -6.62030268e+03 -6.46874246e+03 -6.31718224e+03 -6.47607574e+03 -6.48564377e+03 -6.49521180e+03 -6.50477983e+03 
        </DataArray>
      </PointData>
    </Piece>
    <Piece NumberOfPoints="16" NumberOfCells="9">
      <Points>
        <DataArray type="Float64" NumberOfComponents="3" format="ascii">
          2.50000000e+00 7.00000000e+00 0.00000000e+00 
3.33333325e+00 7.00000000e+00 0.00000000e+00 
4.16666651e+00 7.00000000e+00 0.00000000e+00 
5.00000000e+00 7.00000000e+00 0.00000000e+00 
2.50000000e+00 7.33333349e+00 0.00000000e+00 
3.33333325e+00 7.33333349e+00 0.00000000e+00 
4.16666651e+00 7.33333349e+00 0.00000000e+00 
5.00000000e+00 7.33333349e+00 0.00000000e+00 
2.50000000e+00 7.66666651e+00 0.00000000e+00 
3.33333325e+00 7.66666651e+00 0.00000000e+00 
4.16666651e+00 7.66666651e+00 0.00000000e+00 
5.00000000e+00 7.66666651e+00 0.00000000e+00 
2.50000000e+00 8.00000000e+00 0.00000000e+00 
3.33333325e+00 8.00000000e+00 0.00000000e+00 
4.16666651e+00 8.00000000e+00 0.00000000e+00 
5.00000000e+00 8.00000000e+00 0.00000000e+00 

        </DataArray>
      </Points>
      <Cells>
        <DataArray type="Int32" Name="connectivity" format="ascii">
0 1 5 4
4 5 9 8
8 9 13 12
1 2 6 5
5 6 10 9
9 10 14 13
2 3 7 6
6 7 11 10
10 11 15 14

        </DataArray>
        <DataArray type="Int32" Name="offsets" format="ascii">
4 8 12 16 20 24 28 32 36 
        </DataArray>
        <DataArray type="UInt8" Name="types" format="ascii">
9 9 9 9 9 9 9 9 9 
        </DataArray>
      </Cells>
      <PointData>
        <DataArray type="Float64" Name="u">
          0.00000000e+00 -4.85711567e+00 -3.49713998e+00 -1.88829261e-01 0.00000000e+00 -7.01321432e+00 -9.69049004e+00 -1.21755220e+01 0.00000000e+00 -7.56112885e+00 -1.24096330e+01 -1.85626789e+01 0.00000000e+00 -6.99734492e+00 -1.23271745e+01 -2.00067613e+01 
        </DataArray>
        <DataArray type="Float64" Name="v">
          0.00000000e+00 -1.56602048e+01 -1.16321998e+01 -3.59511495e+00 0.00000000e+00 -1.28628607e+01 -1.10085946e+01 -5.53969597e+00 0.00000000e+00 -9.96878539e+00 -9.08743083e+00 -5.54055376e+00 0.00000000e+00 -6.08181245e+00 -6.01299610e+00 -4.22382579e+00 
        </DataArray>
        <DataArray type="Float64" Name="p">
          -6.51875221e+03 -6.47495914e+03 -6.43116608e+03 -6.38737302e+03 -6.44418762e+03 -6.40387381e+03 -6.36356000e+03 -6.32324619e+03 -6.36962303e+03 -6.33278847e+03 -6.29595391e+03 -6.25911935e+03 -6.29505845e+03 -6.26170314e+03 -6.22834783e+03 -6.19499252e+03 
        </DataArray>
      </PointData>
    </Piece>
    <Piece NumberOfPoints="16" NumberOfCells="9">
      <Points>
        <DataArray type="Float64" NumberOfComponents="3" format="ascii">
          2.50000000e+00 8.00000000e+00 0.00000000e+00 
3.33333325e+00 8.00000000e+00 0.00000000e+00 
4.16666651e+00 8.00000000e+00 0.00000000e+00 
5.00000000e+00 8.00000000e+00 0.00000000e+00 
2.50000000e+00 8.33333302e+00 0.00000000e+00 
3.33333325e+00 8.33333302e+00 0.00000000e+00 
4.16666651e+00 8.33333302e+00 0.00000000e+00 
5.00000000e+00 8.33333302e+00 0.00000000e+00 
2.50000000e+00 8.66666698e+00 0.00000000e+00 
3.33333325e+00 8.66666698e+00 0.00000000e+00 
4.16666651e+00 8.66666698e+00 0.00000000e+00 
5.00000000e+00 8.66666698e+00 0.00000000e+00 
2.50000000e+00 9.00000000e+00 0.00000000e+00 
3.33333325e+00 9.00000000e+00 0.00000000e+00 
4.16666651e+00 9.00000000e+00 0.00000000e+00 
5.00000000e+00 9.00000000e+00 0.00000000e+00 

        </DataArray>
      </Points>
      <Cells>
        <DataArray type="Int32" Name="connectivity" format="ascii">
0 1 5 4
4 5 9 8
8 9 13 12
1 2 6 5
5 6 10 9
9 10 14 13
2 3 7 6
6 7 11 10
10 11 15 14

        </DataArray>
        <DataArray type="Int32" Name="offsets" format="ascii">
4 8 12 16 20 24 28 32 36 
        </DataArray>
        <DataArray type="UInt8" Name="types" format="ascii">
9 9 9 9 9 9 9 9 9 
        </DataArray>
      </Cells>
      <PointData>
        <DataArray type="Float64" Name="u">
          0.00000000e+00 -6.99734492e+00 -1.23271745e+01 -2.00067613e+01 0.00000000e+00 -5.50465404e+00 -9.84721758e+00 -1.70648980e+01 0.00000000e+00 -3.14904225e+00 -5.51045273e+00 -1.00230578e+01 0.00000000e+00 0.00000000e+00 0.00000000e+00 0.00000000e+00 
        </DataArray>
        <DataArray type="Float64" Name="v">
          0.00000000e+00 -6.08181245e+00 -6.01299610e+00 -4.22382579e+00 0.00000000e+00 -2.78241193e+00 -2.86391386e+00 -2.17772458e+00 0.00000000e+00 -9.50537356e-01 -1.02783140e+00 -8.71409957e-01 0.00000000e+00 0.00000000e+00 0.00000000e+00 0.00000000e+00 
        </DataArray>
        <DataArray type="Float64" Name="p">
          -6.30785863e+03 -6.26508600e+03 -6.22231336e+03 -6.17954073e+03 -6.31826364e+03 -6.27663200e+03 -6.23500037e+03 -6.19336873e+03 -6.32866865e+03 -6.28817801e+03 -6.24768737e+03 -6.20719673e+03 -6.33907366e+03 -6.29972401e+03 -6.26037437e+03 -6.22102473e+03 
        </DataArray>
      </PointData>
    </Piece>
    <Piece NumberOfPoints="16" NumberOfCells="9">
      <Points>
        <DataArray type="Float64" NumberOfComponents="3" format="ascii">
          5.00000000e+00 0.00000000e+00 0.00000000e+00 
5.83333349e+00 0.00000000e+00 0.00000000e+00 
6.66666651e+00 0.00000000e+00 0.00000000e+00 
7.50000000e+00 0.00000000e+00 0.00000000e+00 
5.00000000e+00 3.33333343e-01 0.00000000e+00 
5.83333349e+00 3.33333343e-01 0.00000000e+00 
6.66666651e+00 3.33333343e-01 0.00000000e+00 
7.50000000e+00 3.33333343e-01 0.00000000e+00 
5.00000000e+00 6.66666687e-01 0.00000000e+00 
5.83333349e+00 6.66666687e-01 0.00000000e+00 
6.66666651e+00 6.66666687e-01 0.00000000e+00 
7.50000000e+00 6.66666687e-01 0.00000000e+00 
5.00000000e+00 1.00000000e+00 0.00000000e+00 
5.83333349e+00 1.00000000e+00 0.00000000e+00 
6.66666651e+00 1.00000000e+00 0.00000000e+00 
7.50000000e+00 1.00000000e+00 0.00000000e+00 

        </DataArray>
      </Points>
      <Cells>
        <DataArray type="Int32" Name="connectivity" format="ascii">
0 1 5 4
4 5 9 8
8 9 13 12
1 2 6 5
5 6 10 9
9 10 14 13
2 3 7 6
6 7 11 10
10 11 15 14

        </DataArray>
        <DataArray type="Int32" Name="offsets" format="ascii">
4 8 12 16 20 24 28 32 36 
        </DataArray>
        <DataArray type="UInt8" Name="types" format="ascii">
9 9 9 9 9 9 9 9 9 
        </DataArray>
      </Cells>
      <PointData>
        <DataArray type="Float64" Name="u">