<?xml version="1.0"?>
<VTKFile type="UnstructuredGrid" version="0.1" byte_order="LittleEndian">
  <UnstructuredGrid>
    <Piece NumberOfPoints="16" NumberOfCells="9">
      <Points>
        <DataArray type="Float64" NumberOfComponents="3" format="ascii">
          0.00000000e+00 3.00000000e+00 0.00000000e+00 
8.33333313e-01 3.00000000e+00 0.00000000e+00 
1.66666663e+00 3.00000000e+00 0.00000000e+00 
2.50000000e+00 3.00000000e+00 0.00000000e+00 
0.00000000e+00 3.33333325e+00 0.00000000e+00 
8.33333313e-01 3.33333325e+00 0.00000000e+00 
1.66666663e+00 3.33333325e+00 0.00000000e+00 
2.50000000e+00 3.33333325e+00 0.00000000e+00 
0.00000000e+00 3.66666675e+00 0.00000000e+00 
8.33333313e-01 3.66666675e+00 0.00000000e+00 
1.66666663e+00 3.66666675e+00 0.00000000e+00 
2.50000000e+00 3.66666675e+00 0.00000000e+00 
0.00000000e+00 4.00000000e+00 0.00000000e+00 
8.33333313e-01 4.00000000e+00 0.00000000e+00 
1.66666663e+00 4.00000000e+00 0.00000000e+00 
2.50000000e+00 4.00000000e+00 0.00000000e+00 

        </DataArray>
      </Points>
      <Cells>
        <DataArray type="Int32" Name="connectivity" format="ascii">
0 1 5 4
4 5 9 8
8 9 13 12
1 2 6 5
5 6 10 9
9 10 14 13
2 3 7 6
6 7 11 10
10 11 15 14

        </DataArray>
        <DataArray type="Int32" Name="offsets" format="ascii">
4 8 12 16 20 24 28 32 36 
        </DataArray>
        <DataArray type="UInt8" Name="types" format="ascii">
9 9 9 9 9 9 9 9 9 
        </DataArray>
      </Cells>
      <PointData>
        <DataArray type="Float64" Name="u">
          0.00000000e+00 0.00000000e+00 0.00000000e+00 0.00000000e+00 8.88888889e+01 9.17055182e+01 9.11674810e+01 9.88142514e+01 1.55555556e+02 1.57533332e+02 1.58123586e+02 1.62367721e+02 2.00000000e+02 2.00485309e+02 2.01752858e+02 2.03303274e+02 
        </DataArray>
        <DataArray type="Float64" Name="v">
          0.00000000e+00 0.00000000e+00 0.00000000e+00 0.00000000e+00 0.00000000e+00 -9.71997700e-01 -1.36686013e+00 -3.89442987e+00 0.00000000e+00 -8.72732805e-01 -1.94176957e+00 -3.74855470e+00 0.00000000e+00 -1.91367226e+00 -3.34228428e+00 -5.63847402e+00 
        </DataArray>
        <DataArray type="Float64" Name="p">
          -2.33220954e+03 -3.61353095e+03 -4.89485236e+03 -6.17617376e+03 -2.31497623e+03 -3.57314538e+03 -4.83131453e+03 -6.08948368e+03 -2.29774292e+03 -3.53275981e+03 -4.76777670e+03 -6.00279359e+03 -2.28050961e+03 -3.49237424e+03 -4.70423888e+03 -5.91610351e+03 
        </DataArray>
      </PointData>
    </Piece>
    <Piece NumberOfPoints="16" NumberOfCells="9">
      <Points>
        <DataArray type="Float64" NumberOfComponents="3" format="ascii">
          0.00000000e+00 4.00000000e+00 0.00000000e+00 
8.33333313e-01 4.00000000e+00 0.00000000e+00 
1.66666663e+00 4.00000000e+00 0.00000000e+00 
2.50000000e+00 4.00000000e+00 0.00000000e+00 
0.00000000e+00 4.33333349e+00 0.00000000e+00 
8.33333313e-01 4.33333349e+00 0.00000000e+00 
1.66666663e+00 4.33333349e+00 0.00000000e+00 
2.50000000e+00 4.33333349e+00 0.00000000e+00 
0.00000000e+00 4.66666651e+00 0.00000000e+00 
8.33333313e-01 4.66666651e+00 0.00000000e+00 
1.66666663e+00 4.66666651e+00 0.00000000e+00 
2.50000000e+00 4.66666651e+00 0.00000000e+00 
0.00000000e+00 5.00000000e+00 0.00000000e+00 
8.33333313e-01 5.00000000e+00 0.00000000e+00 
1.66666663e+00 5.00000000e+00 0.00000000e+00 
2.50000000e+00 5.00000000e+00 0.00000000e+00 

        </DataArray>
      </Points>
      <Cells>
        <DataArray type="Int32" Name="connectivity" format="ascii">
0 1 5 4
4 5 9 8
8 9 13 12
1 2 6 5
5 6 10 9
9 10 14 13
2 3 7 6
6 7 11 10
10 11 15 14

        </DataArray>
        <DataArray type="Int32" Name="offsets" format="ascii">
4 8 12 16 20 24 28 32 36 
        </DataArray>
        <DataArray type="UInt8" Name="types" format="ascii">
9 9 9 9 9 9 9 9 9 
        </DataArray>
      </Cells>
      <PointData>
        <DataArray type="Float64" Name="u">
          2.00000000e+02 2.00485309e+02 2.01752858e+02 2.03303274e+02 2.22222222e+02 2.21613783e+02 2.22693397e+02 2.22243154e+02 2.22222222e+02 2.20611851e+02 2.21572021e+02 2.19146290e+02 2.00000000e+02 1.97698595e+02 1.98764562e+02 1.94434910e+02 
        </DataArray>
        <DataArray type="Float64" Name="v">
          0.00000000e+00 -1.91367226e+00 -3.34228428e+00 -5.63847402e+00 0.00000000e+00 -1.96368830e+00 -3.78401520e+00 -5.36509590e+00 0.00000000e+00 -1.95564355e+00 -3.59055137e+00 -5.43667489e+00 0.00000000e+00 -1.33913223e+00 -2.90899155e+00 -4.09124522e+00 
        </DataArray>
        <DataArray type="Float64" Name="p">
          -2.24292396e+03 -3.45387527e+03 -4.66482659e+03 -5.87577790e+03 -2.07221800e+03 -3.28805643e+03 -4.50389485e+03 -5.71973327e+03 -1.90151205e+03 -3.12223758e+03 -4.34296311e+03 -5.56368864e+03 -1.73080609e+03 -2.95641873e+03 -4.18203137e+03 -5.40764401e+03 
        </DataArray>
      </PointData>
    </Piece>
    <Piece NumberOfPoints="16" NumberOfCells="9">
      <Points>
        <DataArray type="Float64" NumberOfComponents="3" format="ascii">
          0.00000000e+00 5.00000000e+00 0.00000000e+00 
8.33333313e-01 5.00000000e+00 0.00000000e+00 
1.66666663e+00 5.00000000e+00 0.00000000e+00 
2.50000000e+00 5.00000000e+00 0.00000000e+00 
0.00000000e+00 5.33333349e+00 0.00000000e+00 
8.33333313e-01 5.33333349e+00 0.00000000e+00 
1.66666663e+00 5.33333349e+00 0.00000000e+00 
2.50000000e+00 5.33333349e+00 0.00000000e+00 
0.00000000e+00 5.66666651e+00 0.00000000e+00 
8.33333313e-01 5.66666651e+00 0.00000000e+00 
1.66666663e+00 5.66666651e+00 0.00000000e+00 
2.50000000e+00 5.66666651e+00 0.00000000e+00 
0.00000000e+00 6.00000000e+00 0.00000000e+00 
8.33333313e-01 6.00000000e+00 0.00000000e+00 
1.66666663e+00 6.00000000e+00 0.00000000e+00 
2.50000000e+00 6.00000000e+00 0.00000000e+00 

        </DataArray>
      </Points>
      <Cells>
        <DataArray type="Int32" Name="connectivity" format="ascii">
0 1 5 4
4 5 9 8
8 9 13 12
1 2 6 5
5 6 10 9
9 10 14 13
2 3 7 6
6 7 11 10
10 11 15 14

        </DataArray>
        <DataArray type="Int32" Name="offsets" format="ascii">
4 8 12 16 20 24 28 32 36 
        </DataArray>
        <DataArray type="UInt8" Name="types" format="ascii">
9 9 9 9 9 9 9 9 9 
        </DataArray>
      </Cells>
      <PointData>
        <DataArray type="Float64" Name="u">
          2.00000000e+02 1.97698595e+02 1.98764562e+02 1.94434910e+02 1.55555556e+02 1.53310371e+02 1.54199424e+02 1.49153702e+02 8.88888889e+01 8.73139581e+01 8.76877293e+01 8.31160915e+01 0.00000000e+00 0.00000000e+00 0.00000000e+00 0.00000000e+00 
        </DataArray>
        <DataArray type="Float64" Name="v">
          0.00000000e+00 -1.33913223e+00 -2.90899155e+00 -4.09124522e+00 0.00000000e+00 -4.87661833e-01 -1.43657582e+00 -2.26766914e+00 0.00000000e+00 -4.75334928e-01 -1.27053129e+00 -7.77173851e-01 0.00000000e+00 0.00000000e+00 0.00000000e+00 0.00000000e+00 
        </DataArray>
        <DataArray type="Float64" Name="p">
          -1.73458912e+03 -2.94183348e+03 -4.14907783e+03 -5.35632219e+03 -1.70323484e+03 -2.90836912e+03 -4.11350339e+03 -5.31863767e+03 -1.67188056e+03 -2.87490476e+03 -4.07792895e+03 -5.28095314e+03 -1.64052628e+03 -2.84144040e+03 -4.04235451e+03 -5.24326862e+03 
        </DataArray>
      </PointData>
    </Piece>
    <Piece NumberOfPoints="16" NumberOfCells="9">
      <Points>
        <DataArray type="Float64" NumberOfComponents="3" format="ascii">
          2.50000000e+00 0.00000000e+00 0.00000000e+00 
3.33333325e+00 0.00000000e+00 0.00000000e+00 
4.16666651e+00 0.00000000e+00 0.00000000e+00 
5.00000000e+00 0.00000000e+00 0.00000000e+00 
2.50000000e+00 3.33333343e-01 0.00000000e+00 
3.33333325e+00 3.33333343e-01 0.00000000e+00 
4.16666651e+00 3.33333343e-01 0.00000000e+00 
5.00000000e+00 3.33333343e-01 0.00000000e+00 
2.50000000e+00 6.66666687e-01 0.00000000e+00 
3.33333325e+00 6.66666687e-01 0.00000000e+00 
4.16666651e+00 6.66666687e-01 0.00000000e+00 
5.00000000e+00 6.66666687e-01 0.00000000e+00 
2.50000000e+00 1.00000000e+00 0.00000000e+00 
3.33333325e+00 1.00000000e+00 0.00000000e+00 
4.16666651e+00 1.00000000e+00 0.00000000e+00 
5.00000000e+00 1.00000000e+00 0.00000000e+00 

        </DataArray>
      </Points>
      <Cells>
        <DataArray type="Int32" Name="connectivity" format="ascii">
0 1 5 4
4 5 9 8
8 9 13 12
1 2 6 5
5 6 10 9
9 10 14 13
2 3 7 6
6 7 11 10
10 11 15 14

        </DataArray>
        <DataArray type="Int32" Name="offsets" format="ascii">
4 8 12 16 20 24 28 32 36 
        </DataArray>
        <DataArray type="UInt8" Name="types" format="ascii">
9 9 9 9 9 9 9 9 9 
        </DataArray>
      </Cells>
      <PointData>
        <DataArray type="Float64" Name="u">
          0.00000000e+00 0.00000000e+00 0.00000000e+00 0.00000000e+00 0.00000000e+00 -3.27621505e+00 -5.61186022e+00 -1.02169438e+01 0.00000000e+00 -5.68120607e+00 -9.96753988e+00 -1.72193716e+01 0.00000000e+00 -7.18369287e+00 -1.24068117e+01 -2.00806940e+01 
        </DataArray>
        <DataArray type="Float64" Name="v">
          0.00000000e+00 0.00000000e+00 0.00000000e+00 0.00000000e+00 0.00000000e+00 9.77748582e-01 1.05847717e+00 8.48702058e-01 0.00000000e+00 2.85144333e+00 2.91559670e+00 2.12124346e+00 0.00000000e+00 6.21320981e+00 6.06213407e+00 4.12982449e+00 
        </DataArray>
        <DataArray type="Float64" Name="p">
          -6.15737657e+03 -6.10951730e+03 -6.06165804e+03 -6.01379877e+03 -6.14553615e+03 -6.09693890e+03 -6.04834164e+03 -5.99974439e+03 -6.13369573e+03 -6.08436049e+03 -6.03502525e+03 -5.98569001e+03 -6.12185531e+03 -6.07178208e+03 -6.02170885e+03 -5.97163563e+03 
        </DataArray>
      </PointData>
    </Piece>
    <Piece NumberOfPoints="16" NumberOfCells="9">
      <Points>
        <DataArray type="Float64" NumberOfComponents="3" format="ascii">
          2.50000000e+00 1.00000000e+00 0.00000000e+00 
3.33333325e+00 1.00000000e+00 0.00000000e+00 
4.16666651e+00 1.00000000e+00 0.00000000e+00 
5.00000000e+00 1.00000000e+00 0.00000000e+00 
2.50000000e+00 1.33333337e+00 0.00000000e+00 
3.33333325e+00 1.33333337e+00 0.00000000e+00 
4.16666651e+00 1.33333337e+00 0.00000000e+00 
5.00000000e+00 1.33333337e+00 0.00000000e+00 
2.50000000e+00 1.66666663e+00 0.00000000e+00 
3.33333325e+00 1.66666663e+00 0.00000000e+00 
4.16666651e+00 1.66666663e+00 0.00000000e+00 
5.00000000e+00 1.66666663e+00 0.00000000e+00 
2.50000000e+00 2.00000000e+00 0.00000000e+00 
3.33333325e+00 2.00000000e+00 0.00000000e+00 
4.16666651e+00 2.00000000e+00 0.00000000e+00 
5.00000000e+00 2.00000000e+00 0.00000000e+00 

        </DataArray>
      </Points>
      <Cells>
        <DataArray type="Int32" Name="connectivity" format="ascii">
0 1 5 4
4 5 9 8
8 9 13 12
1 2 6 5
5 6 10 9
9 10 14 13
2 3 7 6
6 7 11 10
10 11 15 14

        </DataArray>
        <DataArray type="Int32" Name="offsets" format="ascii">
4 8 12 16 20 24 28 32 36 
        </DataArray>
        <DataArray type="UInt8" Name="types" format="ascii">
9 9 9 9 9 9 9 9 9 
        </DataArray>
      </Cells>
      <PointData>
        <DataArray type="Float64" Name="u">
          0.00000000e+00 -7.18369287e+00 -1.24068117e+01 -2.00806940e+01 0.00000000e+00 -7.74275895e+00 -1.24334948e+01 -1.85700415e+01 0.00000000e+00 -7.16542402e+00 -9.65015873e+00 -1.21422618e+01 0.00000000e+00 -4.92691455e+00 -3.38638300e+00 -1.61277090e-01 
        </DataArray>
        <DataArray type="Float64" Name="v">
          0.00000000e+00 6.21320981e+00 6.06213407e+00 4.12982449e+00 0.00000000e+00 1.01525763e+01 9.11372720e+00 5.39428727e+00 0.00000000e+00 1.30760065e+01 1.10128470e+01 5.36488024e+00 0.00000000e+00 1.58872762e+01 1.16079721e+01 3.42166364e+00 
        </DataArray>
        <DataArray type="Float64" Name="p">
          -6.10809177e+03 -6.06819544e+03 -6.02829911e+03 -5.98840279e+03 -6.19125659e+03 -6.14528038e+03 -6.09930418e+03 -6.05332797e+03 -6.27442142e+03 -6.22236533e+03 -6.17030924e+03 -6.11825315e+03 -6.35758624e+03 -6.29945027e+03 -6.24131430e+03 -6.18317834e+03 
        </DataArray>
      </PointData>
    </Piece>
    <Piece NumberOfPoints="16" NumberOfCells="9">
      <Points>
        <DataArray type="Float64" NumberOfComponents="3" format="ascii">
          2.50000000e+00 2.00000000e+00 0.00000000e+00 
3.33333325e+00 2.00000000e+00 0.00000000e+00 
4.16666651e+00 2.00000000e+00 0.00000000e+00 
5.00000000e+00 2.00000000e+00 0.00000000e+00 
2.50000000e+00 2.33333325e+00 0.00000000e+00 
3.33333325e+00 2.33333325e+00 0.00000000e+00 
4.16666651e+00 2.33333325e+00 0.00000000e+00 
5.00000000e+00 2.33333325e+00 0.00000000e+00 
2.50000000e+00 2.66666675e+00 0.00000000e+00 
3.33333325e+00 2.66666675e+00 0.00000000e+00 
4.16666651e+00 2.66666675e+00 0.00000000e+00 
5.00000000e+00 2.66666675e+00 0.00000000e+00 
2.50000000e+00 3.00000000e+00 0.00000000e+00 
3.33333325e+00 3.00000000e+00 0.00000000e+00 
4.16666651e+00 3.00000000e+00 0.00000000e+00 
5.00000000e+00 3.00000000e+00 0.00000000e+00 

        </DataArray>
      </Points>
      <Cells>
        <DataArray type="Int32" Name="connectivity" format="ascii">
0 1 5 4
4 5 9 8
8 9 13 12
1 2 6 5
5 6 10 9
9 10 14 13
2 3 7 6
6 7 11 10
10 11 15 14

        </DataArray>
        <DataArray type="Int32" Name="offsets" format="ascii">
4 8 12 16 20 24 28 32 36 
        </DataArray>
        <DataArray type="UInt8" Name="types" format="ascii">
9 9 9 9 9 9 9 9 9 
        </DataArray>
      </Cells>
      <PointData>
        <DataArray type="Float64" Name="u">
          0.00000000e+00 -4.92691455e+00 -3.38638300e+00 -1.61277090e-01 0.00000000e+00 2.03774135e-01 6.95318417e+00 1.98754459e+01 0.00000000e+00 1.46191306e+01 2.67388417e+01 4.78077496e+01 0.00000000e+00 5.27941396e+01 6.35611311e+01 8.64895687e+01 
        </DataArray>
        <DataArray type="Float64" Name="v">
          0.00000000e+00 1.58872762e+01 1.16079721e+01 3.42166364e+00 0.00000000e+00 1.69415179e+01 8.31740733e+00 -1.76154393e+00 0.00000000e+00 1.24481395e+01 3.83644036e+00 -6.10018529e+00 0.00000000e+00 -9.26352849e-01 -5.62284606e+00 -1.01961459e+01 
        </DataArray>
        <DataArray type="Float64" Name="p">
          -6.31323467e+03 -6.31026510e+03 -6.30729553e+03 -6.30432596e+03 -6.63338081e+03 -6.45823381e+03 -6.28308682e+03 -6.10793983e+03 -6.95352694e+03 -6.60620253e+03 -6.25887811e+03 -5.91155369e+03 -7.27367308e+03 -6.75417124e+03 -6.23466940e+03 -5.71516756e+03 
        </DataArray>
      </PointData>
    </Piece>
    <Piece NumberOfPoints="16" NumberOfCells="9">
      <Points>
        <DataArray type="Float64" NumberOfComponents="3" format="ascii">
          2.50000000e+00 3.00000000e+00 0.00000000e+00 
3.33333325e+00 3.00000000e+00 0.00000000e+00 
4.16666651e+00 3.00000000e+00 0.00000000e+00 
5.00000000e+00 3.00000000e+00 0.00000000e+00 
2.50000000e+00 3.33333325e+00 0.00000000e+00 
3.33333325e+00 3.33333325e+00 0.00000000e+00 
4.16666651e+00 3.33333325e+00 0.00000000e+00 
5.00000000e+00 3.33333325e+00 0.00000000e+00 
2.50000000e+00 3.66666675e+00 0.00000000e+00 
3.33333325e+00 3.66666675e+00 0.00000000e+00 
4.16666651e+00 3.66666675e+00 0.00000000e+00 
5.00000000e+00 3.66666675e+00 0.00000000e+00 
2.50000000e+00 4.00000000e+00 0.00000000e+00 
3.33333325e+00 4.00000000e+00 0.00000000e+00 
4.16666651e+00 4.00000000e+00 0.00000000e+00 
5.00000000e+00 4.00000000e+00 0.00000000e+00 

        </DataArray>
      </Points>
      <Cells>
        <DataArray type="Int32" Name="connectivity" format="ascii">
0 1 5 4
4 5 9 8
8 9 13 12
1 2 6 5
5 6 10 9
9 10 14 13
2 3 7 6
6 7 11 10
10 11 15 14

        </DataArray>
        <DataArray type="Int32" Name="offsets" format="ascii">
4 8 12 16 20 24 28 32 36 
        </DataArray>
        <DataArray type="UInt8" Name="types" format="ascii">
9 9 9 9 9 9 9 9 9 
        </DataArray>
      </Cells>
      <PointData>
        <DataArray type="Float64" Name="u">
          0.00000000e+00 5.27941396e+01 6.35611311e+01 8.64895687e+01 9.88142514e+01 1.06130313e+02 1.16357084e+02 1.27064313e+02 1.62367721e+02 1.60980132e+02 1.65852124e+02 1.67609198e+02 2.03303274e+02 1.97987770e+02 2.00389023e+02 1.95268879e+02 
        </DataArray>
        <DataArray type="Float64" Name="v">
          0.00000000e+00 -9.26352849e-01 -5.62284606e+00 -1.01961459e+01 -3.89442987e+00 -1.19667720e+01 -1.30242832e+01 -1.21457374e+01 -3.74855470e+00 -1.22823226e+01 -1.48689224e+01 -1.41013923e+01 -5.63847402e+00 -1.18331287e+01 -1.46429974e+01 -1.63488051e+01 
        </DataArray>
        <DataArray type="Float64" Name="p">
          -7.40327380e+03 -6.79111079e+03 -6.17894777e+03 -5.56678476e+03 -6.76391293e+03 -6.42566874e+03 -6.08742455e+03 -5.74918037e+03 -6.12455206e+03 -6.06022670e+03 -5.99590134e+03 -5.93157597e+03 -5.48519119e+03 -5.69478466e+03 -5.90437812e+03 -6.11397158e+03 
        </DataArray>
      </PointData>
    </Piece>
    <Piece NumberOfPoints="16" NumberOfCells="9">
      <Points>
        <DataArray type="Float64" NumberOfComponents="3" format="ascii">
          2.50000000e+00 4.00000000e+00 0.00000000e+00 
3.33333325e+00 4.00000000e+00 0.00000000e+00 
4.16666651e+00 4.00000000e+00 0.00000000e+00 
5.00000000e+00 4.00000000e+00 0.00000000e+00 
2.50000000e+00 4.33333349e+00 0.00000000e+00 
3.33333325e+00 4.33333349e+00 0.00000000e+00 
4.16666651e+00 4.33333349e+00 0.00000000e+00 
5.00000000e+00 4.33333349e+00 0.00000000e+00 
2.50000000e+00 4.66666651e+00 0.00000000e+00 
3.33333325e+00 4.66666651e+00 0.00000000e+00 
4.16666651e+00 4.66666651e+00 0.00000000e+00 
5.00000000e+00 4.66666651e+00 0.00000000e+00 
2.50000000e+00 5.00000000e+00 0.00000000e+00 
3.33333325e+00 5.00000000e+00 0.00000000e+00 
4.16666651e+00 5.00000000e+00 0.00000000e+00 
5.00000000e+00 5.00000000e+00 0.00000000e+00 

        </DataArray>
      </Points>
      <Cells>
        <DataArray type="Int32" Name="connectivity" format="ascii">
0 1 5 4
4 5 9 8
8 9 13 12
1 2 6 5
5 6 10 9
9 10 14 13
2 3 7 6
6 7 11 10
10 11 15 14

        </DataArray>
        <DataArray type="Int32" Name="offsets" format="ascii">
4 8 12 16 20 24 28 32 36 
        </DataArray>
        <DataArray type="UInt8" Name="types" format="ascii">
9 9 9 9 9 9 9 9 9 
        </DataArray>
      </Cells>
      <PointData>
        <DataArray type="Float64" Name="u">
          2.03303274e+02 1.97987770e+02 2.00389023e+02 1.95268879e+02 2.22243154e+02 2.15117895e+02 2.13750028e+02 2.05703897e+02 2.19146290e+02 2.10693405e+02 2.06858784e+02 1.96335041e+02 1.94434910e+02 1.85800395e+02 1.80650989e+02 1.69273751e+02 
        </DataArray>
        <DataArray type="Float64" Name="v">
          -5.63847402e+00 -1.18331287e+01 -1.46429974e+01 -1.63488051e+01 -5.36509590e+00 -8.55684973e+00 -1.22949147e+01 -1.56508849e+01 -5.43667489e+00 -7.66972443e+00 -9.95228533e+00 -1.31780861e+01 -4.09124522e+00 -3.05202069e+00 -5.85464838e+00 -1.01055755e+01 
        </DataArray>
        <DataArray type="Float64" Name="p">
          -5.30027259e+03 -5.56765606e+03 -5.83503953e+03 -6.10242300e+03 -5.06439144e+03 -5.29716350e+03 -5.52993555e+03 -5.76270760e+03 -4.82851030e+03 -5.02667094e+03 -5.22483157e+03 -5.42299221e+03 -4.59262915e+03 -4.75617837e+03 -4.91972759e+03 -5.08327682e+03 
        </DataArray>
      </PointData>
    </Piece>
    <Piece NumberOfPoints="16" NumberOfCells="9">
      <Points>
        <DataArray type="Float64" NumberOfComponents="3" format="ascii">
          2.50000000e+00 5.00000000e+00 0.00000000e+00 
3.33333325e+00 5.00000000e+00 0.00000000e+00 
4.16666651e+00 5.00000000e+00 0.00000000e+00 
5.00000000e+00 5.00000000e+00 0.00000000e+00 
2.50000000e+00 5.33333349e+00 0.00000000e+00 
3.33333325e+00 5.33333349e+00 0.00000000e+00 
4.16666651e+00 5.33333349e+00 0.00000000e+00 
5.00000000e+00 5.33333349e+00 0.00000000e+00 
2.50000000e+00 5.66666651e+00 0.00000000e+00 
3.33333325e+00 5.66666651e+00 0.00000000e+00 
4.16666651e+00 5.66666651e+00 0.00000000e+00 
5.00000000e+00 5.66666651e+00 0.00000000e+00 
2.50000000e+00 6.00000000e+00 0.00000000e+00 
3.33333325e+00 6.00000000e+00 0.00000000e+00 
4.16666651e+00 6.00000000e+00 0.00000000e+00 
5.00000000e+00 6.00000000e+00 0.00000000e+00 

        </DataArray>
      </Points>
      <Cells>
        <DataArray type="Int32" Name="connectivity" format="ascii">
0 1 5 4
4 5 9 8
8 9 13 12
1 2 6 5
5 6 10 9
9 10 14 13
2 3 7 6
6 7 11 10
10 11 15 14

        </DataArray>
        <DataArray type="Int32" Name="offsets" format="ascii">
4 8 12 16 20 24 28 32 36 
        </DataArray>
        <DataArray type="UInt8" Name="types" format="ascii">
9 9 9 9 9 9 9 9 9 
        </DataArray>
      </Cells>
      <PointData>
        <DataArray type="Float64" Name="u">
          1.94434910e+02 1.85800395e+02 1.80650989e+02 1.69273751e+02 1.49153702e+02 1.41809064e+02 1.36710465e+02 1.28857425e+02 8.31160915e+01 8.53726745e+01 8.45409027e+01 8.49701016e+01 0.00000000e+00 3.84527155e+01 3.95210945e+01 5.10469385e+01 
        </DataArray>
        <DataArray type="Float64" Name="v">
          -4.09124522e+00 -3.05202069e+00 -5.85464838e+00 -1.01055755e+01 -2.26766914e+00 9.31853958e-01 -1.16786192e+00 -6.40229205e+00 -7.77173851e-01 1.02406934e+00 -2.15900781e+00 -5.42716302e+00 0.00000000e+00 -5.36057027e+00 -3.68801584e+00 -1.99466076e+00 
        </DataArray>
        <DataArray type="Float64" Name="p">
          -4.70997131e+03 -4.78303821e+03 -4.85610510e+03 -4.92917200e+03 -5.00484488e+03 -4.88668229e+03 -4.76851971e+03 -4.65035712e+03 -5.29971845e+03 -4.99032638e+03 -4.68093431e+03 -4.37154225e+03 -5.59459202e+03 -5.09397047e+03 -4.59334892e+03 -4.09272737e+03 
        </DataArray>
      </PointData>
    </Piece>
    <Piece NumberOfPoints="16" NumberOfCells="9">
      <Points>
        <DataArray type="Float64" NumberOfComponents="3" format="ascii">
          2.50000000e+00 6.00000000e+00 0.00000000e+00 
3.33333325e+00 6.00000000e+00 0.00000000e+00 
4.16666651e+00 6.00000000e+00 0.00000000e+00 
5.00000000e+00 6.00000000e+00 0.00000000e+00 
2.50000000e+00 6.33333349e+00 0.00000000e+00 
3.33333325e+00 6.33333349e+00 0.00000000e+00 
4.16666651e+00 6.33333349e+00 0.00000000e+00 
5.00000000e+00 6.33333349e+00 0.00000000e+00 
2.50000000e+00 6.66666651e+00 0.00000000e+00 
3.33333325e+00 6.66666651e+00 0.00000000e+00 
4.16666651e+00 6.66666651e+00 0.00000000e+00 
5.00000000e+00 6.66666651e+00 0.00000000e+00 
2.50000000e+00 7.00000000e+00 0.00000000e+00 
3.33333325e+00 7.00000000e+00 0.00000000e+00 
4.16666651e+00 7.00000000e+00 0.00000000e+00 
5.00000000e+00 7.00000000e+00 0.00000000e+00 

        </DataArray>
      </Points>
      <Cells>
        <DataArray type="Int32" Name="connectivity" format="ascii">
0 1 5 4
4 5 9 8
8 9 13 12
1 2 6 5
5 6 10 9
9 10 14 13
2 3 7 6
6 7 11 10
10 11 15 14

        </DataArray>
        <DataArray type="Int32" Name="offsets" format="ascii">
4 8 12 16 20 24 28 32 36 
        </DataArray>
        <DataArray type="UInt8" Name="types" format="ascii">
9 9 9 9 9 9 9 9 9 
        </DataArray>
      </Cells>
      <PointData>
        <DataArray type="Float64" Name="u">
          0.00000000e+00 3.84527155e+01 3.95210945e+01 5.10469385e+01 0.00000000e+00 8.70350560e+00 1.31942711e+01 2.24876713e+01 0.00000000e+00 -1.95626832e+00 -2.46330512e-01 3.71080802e+00 0.00000000e+00 -5.47487079e+00 -6.82898589e+00 -8.33606916e+00 
        </DataArray>
        <DataArray type="Float64" Name="v">
          0.00000000e+00 -5.36057027e+00 -3.68801584e+00 -1.99466076e+00 0.00000000e+00 -1.38073219e+01 -8.21193971e+00 -2.39868392e+00 0.00000000e+00 -1.58194089e+01 -9.51853238e+00 -3.58421105e+00 0.00000000e+00 -1.38531498e+01 -1.03070637e+01 -5.18230144e+00 
        </DataArray>
        <DataArray type="Float64" Name="p">
          -5.55962855e+03 -5.14943030e+03 -4.73923205e+03 -4.32903381e+03 -5.29559758e+03 -5.01277521e+03 -4.72995284e+03 -4.44713047e+03 -5.03156661e+03 -4.87612012e+03 -4.72067363e+03 -4.56522714e+03 -4.76753564e+03 -4.73946503e+03 -4.71139442e+03 -4.68332380e+03 
        </DataArray>
      </PointData>
    </Piece>
    <Piece NumberOfPoints="16" NumberOfCells="9">
      <Points>
        <DataArray type="Float64" NumberOfComponents="3" format="ascii">
          2.50000000e+00 7.00000000e+00 0.00000000e+00 
3.33333325e+00 7.00000000e+00 0.00000000e+00 
4.16666651e+00 7.00000000e+00 0.00000000e+00 
5.00000000e+00 7.00000000e+00 0.00000000e+00 
2.50000000e+00 7.33333349e+00 0.00000000e+00 
3.33333325e+00 7.33333349e+00 0.00000000e+00 
4.16666651e+00 7.33333349e+00 0.00000000e+00 
5.00000000e+00 7.33333349e+00 0.00000000e+00 
2.50000000e+00 7.66666651e+00 0.00000000e+00 
3.33333325e+00 7.66666651e+00 0.00000000e+00 
4.16666651e+00 7.66666651e+00 0.00000000e+00 
5.00000000e+00 7.66666651e+00 0.00000000e+00 
2.50000000e+00 8.00000000e+00 0.00000000e+00 
3.33333325e+00 8.00000000e+00 0.00000000e+00 
4.16666651e+00 8.00000000e+00 0.00000000e+00 
5.00000000e+00 8.00000000e+00 0.00000000e+00 

        </DataArray>
      </Points>
      <Cells>
        <DataArray type="Int32" Name="connectivity" format="ascii">
0 1 5 4
4 5 9 8
8 9 13 12
1 2 6 5
5 6 10 9
9 10 14 13
2 3 7 6
6 7 11 10
10 11 15 14

        </DataArray>
        <DataArray type="Int32" Name="offsets" format="ascii">
4 8 12 16 20 24 28 32 36 
        </DataArray>
        <DataArray type="UInt8" Name="types" format="ascii">
9 9 9 9 9 9 9 9 9 
        </DataArray>
      </Cells>
      <PointData>
        <DataArray type="Float64" Name="u">
          0.00000000e+00 -5.47487079e+00 -6.82898589e+00 -8.33606916e+00 0.00000000e+00 -6.63754444e+00 -1.02038996e+01 -1.43985067e+01 0.00000000e+00 -6.52970547e+00 -1.10512077e+01 -1.66871192e+01 0.00000000e+00 -5.66780890e+00 -1.00657846e+01 -1.59458648e+01 
        </DataArray>
        <DataArray type="Float64" Name="v">
          0.00000000e+00 -1.38531498e+01 -1.03070637e+01 -5.18230144e+00 0.00000000e+00 -1.07956975e+01 -8.83531334e+00 -5.12057694e+00 0.00000000e+00 -8.10501660e+00 -6.94588678e+00 -4.31738314e+00 0.00000000e+00 -4.78664301e+00 -4.45272076e+00 -2.92932602e+00 
        </DataArray>
        <DataArray type="Float64" Name="p">
          -4.79343494e+03 -4.73049111e+03 -4.66754729e+03 -4.60460346e+03 -4.72200200e+03 -4.67266466e+03 -4.62332732e+03 -4.57398998e+03 -4.65056905e+03 -4.61483820e+03 -4.57910736e+03 -4.54337651e+03 -4.57913611e+03 -4.55701175e+03 -4.53488739e+03 -4.51276303e+03 
        </DataArray>
      </PointData>
    </Piece>
    <Piece NumberOfPoints="16" NumberOfCells="9">
      <Points>
        <DataArray type="Float64" NumberOfComponents="3" format="ascii">
          2.50000000e+00 8.00000000e+00 0.00000000e+00 
3.33333325e+00 8.00000000e+00 0.00000000e+00 
4.16666651e+00 8.00000000e+00 0.00000000e+00 
5.00000000e+00 8.00000000e+00 0.00000000e+00 
2.50000000e+00 8.33333302e+00 0.00000000e+00 
3.33333325e+00 8.33333302e+00 0.00000000e+00 
4.16666651e+00 8.33333302e+00 0.00000000e+00 
5.00000000e+00 8.33333302e+00 0.00000000e+00 
2.50000000e+00 8.66666698e+00 0.00000000e+00 
3.33333325e+00 8.66666698e+00 0.00000000e+00 
4.16666651e+00 8.66666698e+00 0.00000000e+00 
5.00000000e+00 8.66666698e+00 0.00000000e+00 
2.50000000e+00 9.00000000e+00 0.00000000e+00 
3.33333325e+00 9.00000000e+00 0.00000000e+00 
4.16666651e+00 9.00000000e+00 0.00000000e+00 
5.00000000e+00 9.00000000e+00 0.00000000e+00 

        </DataArray>
      </Points>
      <Cells>
        <DataArray type="Int32" Name="connectivity" format="ascii">
0 1 5 4
4 5 9 8
8 9 13 12
1 2 6 5
5 6 10 9
9 10 14 13
2 3 7 6
6 7 11 10
10 11 15 14

        </DataArray>
        <DataArray type="Int32" Name="offsets" format="ascii">
4 8 12 16 20 24 28 32 36 
        </DataArray>
        <DataArray type="UInt8" Name="types" format="ascii">
9 9 9 9 9 9 9 9 9 
        </DataArray>
      </Cells>
      <PointData>
        <DataArray type="Float64" Name="u">
          0.00000000e+00 -5.66780890e+00 -1.00657846e+01 -1.59458648e+01 0.00000000e+00 -4.28698554e+00 -7.68541987e+00 -1.27933541e+01 0.00000000e+00 -2.40131381e+00 -4.20225034e+00 -7.43087210e+00 0.00000000e+00 0.00000000e+00 0.00000000e+00 0.00000000e+00 
        </DataArray>
        <DataArray type="Float64" Name="v">
          0.00000000e+00 -4.78664301e+00 -4.45272076e+00 -2.92932602e+00 0.00000000e+00 -2.15759084e+00 -2.15541693e+00 -1.40308763e+00 0.00000000e+00 -7.09373567e-01 -7.66564924e-01 -4.92903341e-01 0.00000000e+00 0.00000000e+00 0.00000000e+00 0.00000000e+00 
        </DataArray>
        <DataArray type="Float64" Name="p">
          -4.59297166e+03 -4.56413839e+03 -4.53530512e+03 -4.50647186e+03 -4.60374583e+03 -4.57490424e+03 -4.54606266e+03 -4.51722107e+03 -4.61452000e+03 -4.58567009e+03 -4.55682019e+03 -4.52797028e+03 -4.62529417e+03 -4.59643595e+03 -4.56757772e+03 -4.53871949e+03 
        </DataArray>
      </PointData>
    </Piece>
    <Piece NumberOfPoints="16" NumberOfCells="9">
      <Points>
        <DataArray type="Float64" NumberOfComponents="3" format="ascii">
          5.00000000e+00 0.00000000e+00 0.00000000e+00 
5.83333349e+00 0.00000000e+00 0.00000000e+00 
6.66666651e+00 0.00000000e+00 0.00000000e+00 
7.50000000e+00 0.00000000e+00 0.00000000e+00 
5.00000000e+00 3.33333343e-01 0.00000000e+00 
5.83333349e+00 3.33333343e-01 0.00000000e+00 
6.66666651e+00 3.33333343e-01 0.00000000e+00 
7.50000000e+00 3.33333343e-01 0.00000000e+00 
5.00000000e+00 6.66666687e-01 0.00000000e+00 
5.83333349e+00 6.66666687e-01 0.00000000e+00 
6.66666651e+00 6.66666687e-01 0.00000000e+00 
7.50000000e+00 6.66666687e-01 0.00000000e+00 
5.00000000e+00 1.00000000e+00 0.00000000e+00 
5.83333349e+00 1.00000000e+00 0.00000000e+00 
6.66666651e+00 1.00000000e+00 0.00000000e+00 
7.50000000e+00 1.00000000e+00 0.00000000e+00 

        </DataArray>
      </Points>
      <Cells>
        <DataArray type="Int32" Name="connectivity" format="ascii">
0 1 5 4
4 5 9 8
8 9 13 12
1 2 6 5
5 6 10 9
9 10 14 13
2 3 7 6
6 7 11 10
10 11 15 14

        </DataArray>
        <DataArray type="Int32" Name="offsets" format="ascii">
4 8 12 16 20 24 28 32 36 
        </DataArray>
        <DataArray type="UInt8" Name="types" format="ascii">
9 9 9 9 9 9 9 9 9 
        </DataArray>
      </Cells>
      <PointData>
        <DataArray type="Float64" Name="u">