<?xml version="1.0"?>
<VTKFile type="UnstructuredGrid" version="0.1" byte_order="LittleEndian">
  <UnstructuredGrid>
    <Piece NumberOfPoints="16" NumberOfCells="9">
      <Points>
        <DataArray type="Float64" NumberOfComponents="3" format="ascii">
          0.00000000e+00 3.00000000e+00 0.00000000e+00 
8.33333313e-01 3.00000000e+00 0.00000000e+00 
1.66666663e+00 3.00000000e+00 0.00000000e+00 
2.50000000e+00 3.00000000e+00 0.00000000e+00 
0.00000000e+00 3.33333325e+00 0.00000000e+00 
8.33333313e-01 3.33333325e+00 0.00000000e+00 
1.66666663e+00 3.33333325e+00 0.00000000e+00 
2.50000000e+00 3.33333325e+00 0.00000000e+00 
0.00000000e+00 3.66666675e+00 0.00000000e+00 
8.33333313e-01 3.66666675e+00 0.00000000e+00 
1.66666663e+00 3.66666675e+00 0.00000000e+00 
2.50000000e+00 3.66666675e+00 0.00000000e+00 
0.00000000e+00 4.00000000e+00 0.00000000e+00 
8.33333313e-01 4.00000000e+00 0.00000000e+00 
1.66666663e+00 4.00000000e+00 0.00000000e+00 
2.50000000e+00 4.00000000e+00 0.00000000e+00 

        </DataArray>
      </Points>
      <Cells>
        <DataArray type="Int32" Name="connectivity" format="ascii">
0 1 5 4
4 5 9 8
8 9 13 12
1 2 6 5
5 6 10 9
9 10 14 13
2 3 7 6
6 7 11 10
10 11 15 14

        </DataArray>
        <DataArray type="Int32" Name="offsets" format="ascii">
4 8 12 16 20 24 28 32 36 
        </DataArray>
        <DataArray type="UInt8" Name="types" format="ascii">
9 9 9 9 9 9 9 9 9 
        </DataArray>
      </Cells>
      <PointData>
        <DataArray type="Float64" Name="u">
          0.00000000e+00 0.00000000e+00 0.00000000e+00 0.00000000e+00 9.77777778e+01 1.01555476e+02 1.01304275e+02 1.14785616e+02 1.71111111e+02 1.74600782e+02 1.74507100e+02 1.81309282e+02 2.20000000e+02 2.23537351e+02 2.18542908e+02 2.26883412e+02 
        </DataArray>
        <DataArray type="Float64" Name="v">
          0.00000000e+00 0.00000000e+00 0.00000000e+00 0.00000000e+00 0.00000000e+00 -1.56174175e+00 -4.18695326e+00 -3.37443388e+00 0.00000000e+00 -7.22112258e-01 -4.05448181e+00 -4.29537721e+00 0.00000000e+00 -2.60673597e+00 -5.94498597e+00 -9.74541104e+00 
        </DataArray>
        <DataArray type="Float64" Name="p">
          -1.03754542e+04 -1.13084437e+04 -1.22414332e+04 -1.31744228e+04 -1.02454779e+04 -1.11827195e+04 -1.21199611e+04 -1.30572027e+04 -1.01155017e+04 -1.10569954e+04 -1.19984890e+04 -1.29399827e+04 -9.98552546e+03 -1.09312712e+04 -1.18770169e+04 -1.28227627e+04 
        </DataArray>
      </PointData>
    </Piece>
    <Piece NumberOfPoints="16" NumberOfCells="9">
      <Points>
        <DataArray type="Float64" NumberOfComponents="3" format="ascii">
          0.00000000e+00 4.00000000e+00 0.00000000e+00 
8.33333313e-01 4.00000000e+00 0.00000000e+00 
1.66666663e+00 4.00000000e+00 0.00000000e+00 
2.50000000e+00 4.00000000e+00 0.00000000e+00 
0.00000000e+00 4.33333349e+00 0.00000000e+00 
8.33333313e-01 4.33333349e+00 0.00000000e+00 
1.66666663e+00 4.33333349e+00 0.00000000e+00 
2.50000000e+00 4.33333349e+00 0.00000000e+00 
0.00000000e+00 4.66666651e+00 0.00000000e+00 
8.33333313e-01 4.66666651e+00 0.00000000e+00 
1.66666663e+00 4.66666651e+00 0.00000000e+00 
2.50000000e+00 4.66666651e+00 0.00000000e+00 
0.00000000e+00 5.00000000e+00 0.00000000e+00 
8.33333313e-01 5.00000000e+00 0.00000000e+00 
1.66666663e+00 5.00000000e+00 0.00000000e+00 
2.50000000e+00 5.00000000e+00 0.00000000e+00 

        </DataArray>
      </Points>
      <Cells>
        <DataArray type="Int32" Name="connectivity" format="ascii">
0 1 5 4
4 5 9 8
8 9 13 12
1 2 6 5
5 6 10 9
9 10 14 13
2 3 7 6
6 7 11 10
10 11 15 14

        </DataArray>
        <DataArray type="Int32" Name="offsets" format="ascii">
4 8 12 16 20 24 28 32 36 
        </DataArray>
        <DataArray type="UInt8" Name="types" format="ascii">
9 9 9 9 9 9 9 9 9 
        </DataArray>
      </Cells>
      <PointData>
        <DataArray type="Float64" Name="u">
          2.20000000e+02 2.23537351e+02 2.18542908e+02 2.26883412e+02 2.44444444e+02 2.45032526e+02 2.44948267e+02 2.45656035e+02 2.44444444e+02 2.43722823e+02 2.44099584e+02 2.40329851e+02 2.20000000e+02 2.19110609e+02 2.14640757e+02 2.11242103e+02 
        </DataArray>
        <DataArray type="Float64" Name="v">
          0.00000000e+00 -2.60673597e+00 -5.94498597e+00 -9.74541104e+00 0.00000000e+00 -2.56732269e+00 -8.42307206e+00 -5.69081159e+00 0.00000000e+00 -2.83688854e+00 -8.19182661e+00 -6.05024127e+00 0.00000000e+00 -2.36637771e+00 -5.45588002e+00 -7.70040661e+00 
        </DataArray>
        <DataArray type="Float64" Name="p">
          -1.00443886e+04 -1.07536301e+04 -1.14628716e+04 -1.21721130e+04 -9.41210448e+03 -1.02971411e+04 -1.11821777e+04 -1.20672143e+04 -8.77982033e+03 -9.84065206e+03 -1.09014838e+04 -1.19623155e+04 -8.14753617e+03 -9.38416305e+03 -1.06207899e+04 -1.18574168e+04 
        </DataArray>
      </PointData>
    </Piece>
    <Piece NumberOfPoints="16" NumberOfCells="9">
      <Points>
        <DataArray type="Float64" NumberOfComponents="3" format="ascii">
          0.00000000e+00 5.00000000e+00 0.00000000e+00 
8.33333313e-01 5.00000000e+00 0.00000000e+00 
1.66666663e+00 5.00000000e+00 0.00000000e+00 
2.50000000e+00 5.00000000e+00 0.00000000e+00 
0.00000000e+00 5.33333349e+00 0.00000000e+00 
8.33333313e-01 5.33333349e+00 0.00000000e+00 
1.66666663e+00 5.33333349e+00 0.00000000e+00 
2.50000000e+00 5.33333349e+00 0.00000000e+00 
0.00000000e+00 5.66666651e+00 0.00000000e+00 
8.33333313e-01 5.66666651e+00 0.00000000e+00 
1.66666663e+00 5.66666651e+00 0.00000000e+00 
2.50000000e+00 5.66666651e+00 0.00000000e+00 
0.00000000e+00 6.00000000e+00 0.00000000e+00 
8.33333313e-01 6.00000000e+00 0.00000000e+00 
1.66666663e+00 6.00000000e+00 0.00000000e+00 
2.50000000e+00 6.00000000e+00 0.00000000e+00 

        </DataArray>
      </Points>
      <Cells>
        <DataArray type="Int32" Name="connectivity" format="ascii">
0 1 5 4
4 5 9 8
8 9 13 12
1 2 6 5
5 6 10 9
9 10 14 13
2 3 7 6
6 7 11 10
10 11 15 14

        </DataArray>
        <DataArray type="Int32" Name="offsets" format="ascii">
4 8 12 16 20 24 28 32 36 
        </DataArray>
        <DataArray type="UInt8" Name="types" format="ascii">
9 9 9 9 9 9 9 9 9 
        </DataArray>
      </Cells>
      <PointData>
        <DataArray type="Float64" Name="u">
          2.20000000e+02 2.19110609e+02 2.14640757e+02 2.11242103e+02 1.71111111e+02 1.67758537e+02 1.69205438e+02 1.59134453e+02 9.77777778e+01 9.42343925e+01 9.51430485e+01 8.67010848e+01 0.00000000e+00 0.00000000e+00 0.00000000e+00 0.00000000e+00 
        </DataArray>
        <DataArray type="Float64" Name="v">
          0.00000000e+00 -2.36637771e+00 -5.45588002e+00 -7.70040661e+00 0.00000000e+00 -7.90078239e-01 -2.77100654e+00 -2.93319756e+00 0.00000000e+00 -1.29972354e+00 -2.70278219e+00 -1.25393355e+00 0.00000000e+00 0.00000000e+00 0.00000000e+00 0.00000000e+00 
        </DataArray>
        <DataArray type="Float64" Name="p">
          -8.18750985e+03 -9.22031526e+03 -1.02531207e+04 -1.12859261e+04 -8.08195393e+03 -9.13773289e+03 -1.01935118e+04 -1.12492908e+04 -7.97639801e+03 -9.05515051e+03 -1.01339030e+04 -1.12126555e+04 -7.87084210e+03 -8.97256814e+03 -1.00742942e+04 -1.11760202e+04 
        </DataArray>
      </PointData>
    </Piece>
    <Piece NumberOfPoints="16" NumberOfCells="9">
      <Points>
        <DataArray type="Float64" NumberOfComponents="3" format="ascii">
          2.50000000e+00 0.00000000e+00 0.00000000e+00 
3.33333325e+00 0.00000000e+00 0.00000000e+00 
4.16666651e+00 0.00000000e+00 0.00000000e+00 
5.00000000e+00 0.00000000e+00 0.00000000e+00 
2.50000000e+00 3.33333343e-01 0.00000000e+00 
3.33333325e+00 3.33333343e-01 0.00000000e+00 
4.16666651e+00 3.33333343e-01 0.00000000e+00 
5.00000000e+00 3.33333343e-01 0.00000000e+00 
2.50000000e+00 6.66666687e-01 0.00000000e+00 
3.33333325e+00 6.66666687e-01 0.00000000e+00 
4.16666651e+00 6.66666687e-01 0.00000000e+00 
5.00000000e+00 6.66666687e-01 0.00000000e+00 
2.50000000e+00 1.00000000e+00 0.00000000e+00 
3.33333325e+00 1.00000000e+00 0.00000000e+00 
4.16666651e+00 1.00000000e+00 0.00000000e+00 
5.00000000e+00 1.00000000e+00 0.00000000e+00 

        </DataArray>
      </Points>
      <Cells>
        <DataArray type="Int32" Name="connectivity" format="ascii">
0 1 5 4
4 5 9 8
8 9 13 12
1 2 6 5
5 6 10 9
9 10 14 13
2 3 7 6
6 7 11 10
10 11 15 14

        </DataArray>
        <DataArray type="Int32" Name="offsets" format="ascii">
4 8 12 16 20 24 28 32 36 
        </DataArray>
        <DataArray type="UInt8" Name="types" format="ascii">
9 9 9 9 9 9 9 9 9 
        </DataArray>
      </Cells>
      <PointData>
        <DataArray type="Float64" Name="u">
          0.00000000e+00 0.00000000e+00 0.00000000e+00 0.00000000e+00 0.00000000e+00 -3.15768450e+00 -5.73370728e+00 -1.11677573e+01 0.00000000e+00 -5.37842074e+00 -1.02182391e+01 -1.79034602e+01 0.00000000e+00 -6.38878094e+00 -1.24150724e+01 -2.02903394e+01 
        </DataArray>
        <DataArray type="Float64" Name="v">
          0.00000000e+00 0.00000000e+00 0.00000000e+00 0.00000000e+00 0.00000000e+00 9.86001078e-01 1.10205697e+00 1.50918796e+00 0.00000000e+00 2.81275850e+00 3.06073075e+00 3.20571490e+00 0.00000000e+00 6.10299981e+00 6.37927476e+00 5.55477306e+00 
        </DataArray>
        <DataArray type="Float64" Name="p">
          -1.56688779e+04 -1.56358992e+04 -1.56029205e+04 -1.55699419e+04 -1.56627826e+04 -1.56267945e+04 -1.55908064e+04 -1.55548182e+04 -1.56566874e+04 -1.56176898e+04 -1.55786922e+04 -1.55396946e+04 -1.56505921e+04 -1.56085851e+04 -1.55665780e+04 -1.55245710e+04 
        </DataArray>
      </PointData>
    </Piece>
    <Piece NumberOfPoints="16" NumberOfCells="9">
      <Points>
        <DataArray type="Float64" NumberOfComponents="3" format="ascii">
          2.50000000e+00 1.00000000e+00 0.00000000e+00 
3.33333325e+00 1.00000000e+00 0.00000000e+00 
4.16666651e+00 1.00000000e+00 0.00000000e+00 
5.00000000e+00 1.00000000e+00 0.00000000e+00 
2.50000000e+00 1.33333337e+00 0.00000000e+00 
3.33333325e+00 1.33333337e+00 0.00000000e+00 
4.16666651e+00 1.33333337e+00 0.00000000e+00 
5.00000000e+00 1.33333337e+00 0.00000000e+00 
2.50000000e+00 1.66666663e+00 0.00000000e+00 
3.33333325e+00 1.66666663e+00 0.00000000e+00 
4.16666651e+00 1.66666663e+00 0.00000000e+00 
5.00000000e+00 1.66666663e+00 0.00000000e+00 
2.50000000e+00 2.00000000e+00 0.00000000e+00 
3.33333325e+00 2.00000000e+00 0.00000000e+00 
4.16666651e+00 2.00000000e+00 0.00000000e+00 
5.00000000e+00 2.00000000e+00 0.00000000e+00 

        </DataArray>
      </Points>
      <Cells>
        <DataArray type="Int32" Name="connectivity" format="ascii">
0 1 5 4
4 5 9 8
8 9 13 12
1 2 6 5
5 6 10 9
9 10 14 13
2 3 7 6
6 7 11 10
10 11 15 14

        </DataArray>
        <DataArray type="Int32" Name="offsets" format="ascii">
4 8 12 16 20 24 28 32 36 
        </DataArray>
        <DataArray type="UInt8" Name="types" format="ascii">
9 9 9 9 9 9 9 9 9 
        </DataArray>
      </Cells>
      <PointData>
        <DataArray type="Float64" Name="u">
          0.00000000e+00 -6.38878094e+00 -1.24150724e+01 -2.02903394e+01 0.00000000e+00 -7.26786078e+00 -1.28243872e+01 -1.86245725e+01 0.00000000e+00 -6.80707968e+00 -1.01385877e+01 -1.24206957e+01 0.00000000e+00 -4.60180346e+00 -3.44206656e+00 -4.65120958e-01 
        </DataArray>
        <DataArray type="Float64" Name="v">
          0.00000000e+00 6.10299981e+00 6.37927476e+00 5.55477306e+00 0.00000000e+00 9.93214958e+00 9.84378319e+00 5.91413193e+00 0.00000000e+00 1.28340806e+01 1.18686423e+01 5.91918564e+00 0.00000000e+00 1.56948463e+01 1.20337248e+01 5.37238982e+00 
        </DataArray>
        <DataArray type="Float64" Name="p">
          -1.56909994e+04 -1.56556866e+04 -1.56203739e+04 -1.55850611e+04 -1.57424929e+04 -1.57156328e+04 -1.56887726e+04 -1.56619125e+04 -1.57939863e+04 -1.57755789e+04 -1.57571714e+04 -1.57387639e+04 -1.58454798e+04 -1.58355250e+04 -1.58255701e+04 -1.58156153e+04 
        </DataArray>
      </PointData>
    </Piece>
    <Piece NumberOfPoints="16" NumberOfCells="9">
      <Points>
        <DataArray type="Float64" NumberOfComponents="3" format="ascii">
          2.50000000e+00 2.00000000e+00 0.00000000e+00 
3.33333325e+00 2.00000000e+00 0.00000000e+00 
4.16666651e+00 2.00000000e+00 0.00000000e+00 
5.00000000e+00 2.00000000e+00 0.00000000e+00 
2.50000000e+00 2.33333325e+00 0.00000000e+00 
3.33333325e+00 2.33333325e+00 0.00000000e+00 
4.16666651e+00 2.33333325e+00 0.00000000e+00 
5.00000000e+00 2.33333325e+00 0.00000000e+00 
2.50000000e+00 2.66666675e+00 0.00000000e+00 
3.33333325e+00 2.66666675e+00 0.00000000e+00 
4.16666651e+00 2.66666675e+00 0.00000000e+00 
5.00000000e+00 2.66666675e+00 0.00000000e+00 
2.50000000e+00 3.00000000e+00 0.00000000e+00 
3.33333325e+00 3.00000000e+00 0.00000000e+00 
4.16666651e+00 3.00000000e+00 0.00000000e+00 
5.00000000e+00 3.00000000e+00 0.00000000e+00 

        </DataArray>
      </Points>
      <Cells>
        <DataArray type="Int32" Name="connectivity" format="ascii">
0 1 5 4
4 5 9 8
8 9 13 12
1 2 6 5
5 6 10 9
9 10 14 13
2 3 7 6
6 7 11 10
10 11 15 14

        </DataArray>
        <DataArray type="Int32" Name="offsets" format="ascii">
4 8 12 16 20 24 28 32 36 
        </DataArray>
        <DataArray type="UInt8" Name="types" format="ascii">
9 9 9 9 9 9 9 9 9 
        </DataArray>
      </Cells>
      <PointData>
        <DataArray type="Float64" Name="u">
          0.00000000e+00 -4.60180346e+00 -3.44206656e+00 -4.65120958e-01 0.00000000e+00 -1.32711940e+00 5.90900146e+00 2.05404347e+01 0.00000000e+00 1.26603108e+01 2.80162801e+01 5.28339132e+01 0.00000000e+00 5.78326306e+01 7.60991618e+01 1.01636513e+02 
        </DataArray>
        <DataArray type="Float64" Name="v">
          0.00000000e+00 1.56948463e+01 1.20337248e+01 5.37238982e+00 0.00000000e+00 1.71464665e+01 8.07527184e+00 1.30562341e-01 0.00000000e+00 1.30282916e+01 3.37926792e+00 -5.48520153e+00 0.00000000e+00 -1.44803056e+00 -7.43010556e+00 -1.33252632e+01 
        </DataArray>
        <DataArray type="Float64" Name="p">
          -1.60881712e+04 -1.60546154e+04 -1.60210595e+04 -1.59875037e+04 -1.63475356e+04 -1.61657111e+04 -1.59838866e+04 -1.58020621e+04 -1.66068999e+04 -1.62768067e+04 -1.59467136e+04 -1.56166205e+04 -1.68662642e+04 -1.63879024e+04 -1.59095406e+04 -1.54311789e+04 
        </DataArray>
      </PointData>
    </Piece>
    <Piece NumberOfPoints="16" NumberOfCells="9">
      <Points>
        <DataArray type="Float64" NumberOfComponents="3" format="ascii">
          2.50000000e+00 3.00000000e+00 0.00000000e+00 
3.33333325e+00 3.00000000e+00 0.00000000e+00 
4.16666651e+00 3.00000000e+00 0.00000000e+00 
5.00000000e+00 3.00000000e+00 0.00000000e+00 
2.50000000e+00 3.33333325e+00 0.00000000e+00 
3.33333325e+00 3.33333325e+00 0.00000000e+00 
4.16666651e+00 3.33333325e+00 0.00000000e+00 
5.00000000e+00 3.33333325e+00 0.00000000e+00 
2.50000000e+00 3.66666675e+00 0.00000000e+00 
3.33333325e+00 3.66666675e+00 0.00000000e+00 
4.16666651e+00 3.66666675e+00 0.00000000e+00 
5.00000000e+00 3.66666675e+00 0.00000000e+00 
2.50000000e+00 4.00000000e+00 0.00000000e+00 
3.33333325e+00 4.00000000e+00 0.00000000e+00 
4.16666651e+00 4.00000000e+00 0.00000000e+00 
5.00000000e+00 4.00000000e+00 0.00000000e+00 

        </DataArray>
      </Points>
      <Cells>
        <DataArray type="Int32" Name="connectivity" format="ascii">
0 1 5 4
4 5 9 8
8 9 13 12
1 2 6 5
5 6 10 9
9 10 14 13
2 3 7 6
6 7 11 10
10 11 15 14

        </DataArray>
        <DataArray type="Int32" Name="offsets" format="ascii">
4 8 12 16 20 24 28 32 36 
        </DataArray>
        <DataArray type="UInt8" Name="types" format="ascii">
9 9 9 9 9 9 9 9 9 
        </DataArray>
      </Cells>
      <PointData>
        <DataArray type="Float64" Name="u">
          0.00000000e+00 5.78326306e+01 7.60991618e+01 1.01636513e+02 1.14785616e+02 1.19317822e+02 1.34955019e+02 1.51347320e+02 1.81309282e+02 1.81800013e+02 1.90095879e+02 1.95003908e+02 2.26883412e+02 2.22243299e+02 2.24899935e+02 2.24017491e+02 
        </DataArray>
        <DataArray type="Float64" Name="v">
          0.00000000e+00 -1.44803056e+00 -7.43010556e+00 -1.33252632e+01 -3.37443388e+00 -1.36985127e+01 -2.10813988e+01 -1.29370558e+01 -4.29537721e+00 -1.33501015e+01 -2.01253744e+01 -1.71866052e+01 -9.74541104e+00 -1.33101247e+01 -2.08507548e+01 -2.75474546e+01 
        </DataArray>
        <DataArray type="Float64" Name="p">
          -1.72332541e+04 -1.64388225e+04 -1.56443908e+04 -1.48499591e+04 -1.62526138e+04 -1.58462853e+04 -1.54399568e+04 -1.50336283e+04 -1.52719735e+04 -1.52537482e+04 -1.52355228e+04 -1.52172975e+04 -1.42913332e+04 -1.46612110e+04 -1.50310889e+04 -1.54009667e+04 
        </DataArray>
      </PointData>
    </Piece>
    <Piece NumberOfPoints="16" NumberOfCells="9">
      <Points>
        <DataArray type="Float64" NumberOfComponents="3" format="ascii">
          2.50000000e+00 4.00000000e+00 0.00000000e+00 
3.33333325e+00 4.00000000e+00 0.00000000e+00 
4.16666651e+00 4.00000000e+00 0.00000000e+00 
5.00000000e+00 4.00000000e+00 0.00000000e+00 
2.50000000e+00 4.33333349e+00 0.00000000e+00 
3.33333325e+00 4.33333349e+00 0.00000000e+00 
4.16666651e+00 4.33333349e+00 0.00000000e+00 
5.00000000e+00 4.33333349e+00 0.00000000e+00 
2.50000000e+00 4.66666651e+00 0.00000000e+00 
3.33333325e+00 4.66666651e+00 0.00000000e+00 
4.16666651e+00 4.66666651e+00 0.00000000e+00 
5.00000000e+00 4.66666651e+00 0.00000000e+00 
2.50000000e+00 5.00000000e+00 0.00000000e+00 
3.33333325e+00 5.00000000e+00 0.00000000e+00 
4.16666651e+00 5.00000000e+00 0.00000000e+00 
5.00000000e+00 5.00000000e+00 0.00000000e+00 

        </DataArray>
      </Points>
      <Cells>
        <DataArray type="Int32" Name="connectivity" format="ascii">
0 1 5 4
4 5 9 8
8 9 13 12
1 2 6 5
5 6 10 9
9 10 14 13
2 3 7 6
6 7 11 10
10 11 15 14

        </DataArray>
        <DataArray type="Int32" Name="offsets" format="ascii">
4 8 12 16 20 24 28 32 36 
        </DataArray>
        <DataArray type="UInt8" Name="types" format="ascii">
9 9 9 9 9 9 9 9 9 
        </DataArray>
      </Cells>
      <PointData>
        <DataArray type="Float64" Name="u">
          2.26883412e+02 2.22243299e+02 2.24899935e+02 2.24017491e+02 2.45656035e+02 2.39780482e+02 2.37583067e+02 2.31831465e+02 2.40329851e+02 2.32595155e+02 2.29250792e+02 2.15786603e+02 2.11242103e+02 2.03022149e+02 1.96154959e+02 1.80504641e+02 
        </DataArray>
        <DataArray type="Float64" Name="v">
          -9.74541104e+00 -1.33101247e+01 -2.08507548e+01 -2.75474546e+01 -5.69081159e+00 -1.04758750e+01 -2.29547840e+01 -1.69198271e+01 -6.05024127e+00 -1.14577116e+01 -2.04535273e+01 -1.65724992e+01 -7.70040661e+00 -5.55912287e+00 -1.21744310e+01 -1.93917001e+01 
        </DataArray>
        <DataArray type="Float64" Name="p">
          -1.45025635e+04 -1.42640153e+04 -1.40254670e+04 -1.37869188e+04 -1.33589384e+04 -1.34069586e+04 -1.34549787e+04 -1.35029988e+04 -1.22153134e+04 -1.25499019e+04 -1.28844904e+04 -1.32190789e+04 -1.10716883e+04 -1.16928452e+04 -1.23140020e+04 -1.29351589e+04 
        </DataArray>
      </PointData>
    </Piece>
    <Piece NumberOfPoints="16" NumberOfCells="9">
      <Points>
        <DataArray type="Float64" NumberOfComponents="3" format="ascii">
          2.50000000e+00 5.00000000e+00 0.00000000e+00 
3.33333325e+00 5.00000000e+00 0.00000000e+00 
4.16666651e+00 5.00000000e+00 0.00000000e+00 
5.00000000e+00 5.00000000e+00 0.00000000e+00 
2.50000000e+00 5.33333349e+00 0.00000000e+00 
3.33333325e+00 5.33333349e+00 0.00000000e+00 
4.16666651e+00 5.33333349e+00 0.00000000e+00 
5.00000000e+00 5.33333349e+00 0.00000000e+00 
2.50000000e+00 5.66666651e+00 0.00000000e+00 
3.33333325e+00 5.66666651e+00 0.00000000e+00 
4.16666651e+00 5.66666651e+00 0.00000000e+00 
5.00000000e+00 5.66666651e+00 0.00000000e+00 
2.50000000e+00 6.00000000e+00 0.00000000e+00 
3.33333325e+00 6.00000000e+00 0.00000000e+00 
4.16666651e+00 6.00000000e+00 0.00000000e+00 
5.00000000e+00 6.00000000e+00 0.00000000e+00 

        </DataArray>
      </Points>
      <Cells>
        <DataArray type="Int32" Name="connectivity" format="ascii">
0 1 5 4
4 5 9 8
8 9 13 12
1 2 6 5
5 6 10 9
9 10 14 13
2 3 7 6
6 7 11 10
10 11 15 14

        </DataArray>
        <DataArray type="Int32" Name="offsets" format="ascii">
4 8 12 16 20 24 28 32 36 
        </DataArray>
        <DataArray type="UInt8" Name="types" format="ascii">
9 9 9 9 9 9 9 9 9 
        </DataArray>
      </Cells>
      <PointData>
        <DataArray type="Float64" Name="u">
          2.11242103e+02 2.03022149e+02 1.96154959e+02 1.80504641e+02 1.59134453e+02 1.53150695e+02 1.41176928e+02 1.31460046e+02 8.67010848e+01 8.82084155e+01 8.06824926e+01 7.83532688e+01 0.00000000e+00 3.75685674e+01 3.69684231e+01 4.18754088e+01 
        </DataArray>
        <DataArray type="Float64" Name="v">
          -7.70040661e+00 -5.55912287e+00 -1.21744310e+01 -1.93917001e+01 -2.93319756e+00 -1.53743893e+00 -6.46973984e+00 -9.30071947e+00 -1.25393355e+00 -1.79866636e+00 -8.06704489e+00 -7.75429837e+00 0.00000000e+00 -6.62616463e+00 -5.75850866e+00 -4.36725915e+00 
        </DataArray>
        <DataArray type="Float64" Name="p">
          -1.19259785e+04 -1.17705639e+04 -1.16151494e+04 -1.14597348e+04 -1.19877881e+04 -1.17119512e+04 -1.14361143e+04 -1.11602774e+04 -1.20495977e+04 -1.16533385e+04 -1.12570792e+04 -1.08608200e+04 -1.21114073e+04 -1.15947257e+04 -1.10780442e+04 -1.05613626e+04 
        </DataArray>
      </PointData>
    </Piece>
    <Piece NumberOfPoints="16" NumberOfCells="9">
      <Points>
        <DataArray type="Float64" NumberOfComponents="3" format="ascii">
          2.50000000e+00 6.00000000e+00 0.00000000e+00 
3.33333325e+00 6.00000000e+00 0.00000000e+00 
4.16666651e+00 6.00000000e+00 0.00000000e+00 
5.00000000e+00 6.00000000e+00 0.00000000e+00 
2.50000000e+00 6.33333349e+00 0.00000000e+00 
3.33333325e+00 6.33333349e+00 0.00000000e+00 
4.16666651e+00 6.33333349e+00 0.00000000e+00 
5.00000000e+00 6.33333349e+00 0.00000000e+00 
2.50000000e+00 6.66666651e+00 0.00000000e+00 
3.33333325e+00 6.66666651e+00 0.00000000e+00 
4.16666651e+00 6.66666651e+00 0.00000000e+00 
5.00000000e+00 6.66666651e+00 0.00000000e+00 
2.50000000e+00 7.00000000e+00 0.00000000e+00 
3.33333325e+00 7.00000000e+00 0.00000000e+00 
4.16666651e+00 7.00000000e+00 0.00000000e+00 
5.00000000e+00 7.00000000e+00 0.00000000e+00 

        </DataArray>
      </Points>
      <Cells>
        <DataArray type="Int32" Name="connectivity" format="ascii">
0 1 5 4
4 5 9 8
8 9 13 12
1 2 6 5
5 6 10 9
9 10 14 13
2 3 7 6
6 7 11 10
10 11 15 14

        </DataArray>
        <DataArray type="Int32" Name="offsets" format="ascii">
4 8 12 16 20 24 28 32 36 
        </DataArray>
        <DataArray type="UInt8" Name="types" format="ascii">
9 9 9 9 9 9 9 9 9 
        </DataArray>
      </Cells>
      <PointData>
        <DataArray type="Float64" Name="u">
          0.00000000e+00 3.75685674e+01 3.69684231e+01 4.18754088e+01 0.00000000e+00 5.52118021e+00 8.55826975e+00 1.51672971e+01 0.00000000e+00 -3.52036499e+00 -3.19500040e+00 -6.86460687e-01 0.00000000e+00 -4.81309367e+00 -7.08808132e+00 -9.89759669e+00 
        </DataArray>
        <DataArray type="Float64" Name="v">
          0.00000000e+00 -6.62616463e+00 -5.75850866e+00 -4.36725915e+00 0.00000000e+00 -1.38868198e+01 -8.60798512e+00 -4.53814254e+00 0.00000000e+00 -1.49244209e+01 -8.94976198e+00 -5.03418604e+00 0.00000000e+00 -1.24847061e+01 -9.46214049e+00 -5.84886782e+00 
        </DataArray>
        <DataArray type="Float64" Name="p">
          -1.20145735e+04 -1.16494100e+04 -1.12842466e+04 -1.09190832e+04 -1.18140885e+04 -1.15464601e+04 -1.12788317e+04 -1.10112032e+04 -1.16136036e+04 -1.14435101e+04 -1.12734167e+04 -1.11033233e+04 -1.14131186e+04 -1.13405602e+04 -1.12680018e+04 -1.11954433e+04 
        </DataArray>
      </PointData>
    </Piece>
    <Piece NumberOfPoints="16" NumberOfCells="9">
      <Points>
        <DataArray type="Float64" NumberOfComponents="3" format="ascii">
          2.50000000e+00 7.00000000e+00 0.00000000e+00 
3.33333325e+00 7.00000000e+00 0.00000000e+00 
4.16666651e+00 7.00000000e+00 0.00000000e+00 
5.00000000e+00 7.00000000e+00 0.00000000e+00 
2.50000000e+00 7.33333349e+00 0.00000000e+00 
3.33333325e+00 7.33333349e+00 0.00000000e+00 
4.16666651e+00 7.33333349e+00 0.00000000e+00 
5.00000000e+00 7.33333349e+00 0.00000000e+00 
2.50000000e+00 7.66666651e+00 0.00000000e+00 
3.33333325e+00 7.66666651e+00 0.00000000e+00 
4.16666651e+00 7.66666651e+00 0.00000000e+00 
5.00000000e+00 7.66666651e+00 0.00000000e+00 
2.50000000e+00 8.00000000e+00 0.00000000e+00 
3.33333325e+00 8.00000000e+00 0.00000000e+00 
4.16666651e+00 8.00000000e+00 0.00000000e+00 
5.00000000e+00 8.00000000e+00 0.00000000e+00 

        </DataArray>
      </Points>
      <Cells>
        <DataArray type="Int32" Name="connectivity" format="ascii">
0 1 5 4
4 5 9 8
8 9 13 12
1 2 6 5
5 6 10 9
9 10 14 13
2 3 7 6
6 7 11 10
10 11 15 14

        </DataArray>
        <DataArray type="Int32" Name="offsets" format="ascii">
4 8 12 16 20 24 28 32 36 
        </DataArray>
        <DataArray type="UInt8" Name="types" format="ascii">
9 9 9 9 9 9 9 9 9 
        </DataArray>
      </Cells>
      <PointData>
        <DataArray type="Float64" Name="u">
          0.00000000e+00 -4.81309367e+00 -7.08808132e+00 -9.89759669e+00 0.00000000e+00 -6.02093604e+00 -9.96784173e+00 -1.40717107e+01 0.00000000e+00 -5.75720655e+00 -1.02686802e+01 -1.52580148e+01 0.00000000e+00 -4.59808312e+00 -8.82115419e+00 -1.40944053e+01 
        </DataArray>
        <DataArray type="Float64" Name="v">
          0.00000000e+00 -1.24847061e+01 -9.46214049e+00 -5.84886782e+00 0.00000000e+00 -9.53699637e+00 -8.05918053e+00 -4.74162011e+00 0.00000000e+00 -7.08213619e+00 -6.27514261e+00 -3.76462697e+00 0.00000000e+00 -4.12409856e+00 -3.91126444e+00 -2.79084716e+00 
        </DataArray>
        <DataArray type="Float64" Name="p">
          -1.12207008e+04 -1.11807201e+04 -1.11407393e+04 -1.11007586e+04 -1.11751218e+04 -1.11407925e+04 -1.11064631e+04 -1.10721337e+04 -1.11295429e+04 -1.11008648e+04 -1.10721868e+04 -1.10435087e+04 -1.10839640e+04 -1.10609372e+04 -1.10379105e+04 -1.10148837e+04 
        </DataArray>
      </PointData>
    </Piece>
    <Piece NumberOfPoints="16" NumberOfCells="9">
      <Points>
        <DataArray type="Float64" NumberOfComponents="3" format="ascii">
          2.50000000e+00 8.00000000e+00 0.00000000e+00 
3.33333325e+00 8.00000000e+00 0.00000000e+00 
4.16666651e+00 8.00000000e+00 0.00000000e+00 
5.00000000e+00 8.00000000e+00 0.00000000e+00 
2.50000000e+00 8.33333302e+00 0.00000000e+00 
3.33333325e+00 8.33333302e+00 0.00000000e+00 
4.16666651e+00 8.33333302e+00 0.00000000e+00 
5.00000000e+00 8.33333302e+00 0.00000000e+00 
2.50000000e+00 8.66666698e+00 0.00000000e+00 
3.33333325e+00 8.66666698e+00 0.00000000e+00 
4.16666651e+00 8.66666698e+00 0.00000000e+00 
5.00000000e+00 8.66666698e+00 0.00000000e+00 
2.50000000e+00 9.00000000e+00 0.00000000e+00 
3.33333325e+00 9.00000000e+00 0.00000000e+00 
4.16666651e+00 9.00000000e+00 0.00000000e+00 
5.00000000e+00 9.00000000e+00 0.00000000e+00 

        </DataArray>
      </Points>
      <Cells>
        <DataArray type="Int32" Name="connectivity" format="ascii">
0 1 5 4
4 5 9 8
8 9 13 12
1 2 6 5
5 6 10 9
9 10 14 13
2 3 7 6
6 7 11 10
10 11 15 14

        </DataArray>
        <DataArray type="Int32" Name="offsets" format="ascii">
4 8 12 16 20 24 28 32 36 
        </DataArray>
        <DataArray type="UInt8" Name="types" format="ascii">
9 9 9 9 9 9 9 9 9 
        </DataArray>
      </Cells>
      <PointData>
        <DataArray type="Float64" Name="u">
          0.00000000e+00 -4.59808312e+00 -8.82115419e+00 -1.40944053e+01 0.00000000e+00 -3.60320306e+00 -6.77084405e+00 -1.11529925e+01 0.00000000e+00 -2.03724671e+00 -3.68138519e+00 -6.56298590e+00 0.00000000e+00 0.00000000e+00 0.00000000e+00 0.00000000e+00 
        </DataArray>
        <DataArray type="Float64" Name="v">
          0.00000000e+00 -4.12409856e+00 -3.91126444e+00 -2.79084716e+00 0.00000000e+00 -1.86632249e+00 -1.83360154e+00 -1.51207975e+00 0.00000000e+00 -6.23328971e-01 -6.14899438e-01 -6.51514266e-01 0.00000000e+00 0.00000000e+00 0.00000000e+00 0.00000000e+00 
        </DataArray>
        <DataArray type="Float64" Name="p">
          -1.10609974e+04 -1.10387908e+04 -1.10165842e+04 -1.09943776e+04 -1.10661615e+04 -1.10456807e+04 -1.10252000e+04 -1.10047192e+04 -1.10713256e+04 -1.10525707e+04 -1.10338158e+04 -1.10150608e+04 -1.10764896e+04 -1.10594606e+04 -1.10424315e+04 -1.10254025e+04 
        </DataArray>
      </PointData>
    </Piece>
    <Piece NumberOfPoints="16" NumberOfCells="9">
      <Points>
        <DataArray type="Float64" NumberOfComponents="3" format="ascii">
          5.00000000e+00 0.00000000e+00 0.00000000e+00 
5.83333349e+00 0.00000000e+00 0.00000000e+00 
6.66666651e+00 0.00000000e+00 0.00000000e+00 
7.50000000e+00 0.00000000e+00 0.00000000e+00 
5.00000000e+00 3.33333343e-01 0.00000000e+00 
5.83333349e+00 3.33333343e-01 0.00000000e+00 
6.66666651e+00 3.33333343e-01 0.00000000e+00 
7.50000000e+00 3.33333343e-01 0.00000000e+00 
5.00000000e+00 6.66666687e-01 0.00000000e+00 
5.83333349e+00 6.66666687e-01 0.00000000e+00 
6.66666651e+00 6.66666687e-01 0.00000000e+00 
7.50000000e+00 6.66666687e-01 0.00000000e+00 
5.00000000e+00 1.00000000e+00 0.00000000e+00 
5.83333349e+00 1.00000000e+00 0.00000000e+00 
6.66666651e+00 1.00000000e+00 0.00000000e+00 
7.50000000e+00 1.00000000e+00 0.00000000e+00 

        </DataArray>
      </Points>
      <Cells>
        <DataArray type="Int32" Name="connectivity" format="ascii">
0 1 5 4
4 5 9 8
8 9 13 12
1 2 6 5
5 6 10 9
9 10 14 13
2 3 7 6
6 7 11 10
10 11 15 14

        </DataArray>
        <DataArray type="Int32" Name="offsets" format="ascii">
4 8 12 16 20 24 28 32 36 
        </DataArray>
        <DataArray type="UInt8" Name="types" format="ascii">
9 9 9 9 9 9 9 9 9 
        </DataArray>
      </Cells>
      <PointData>
        <DataArray type="Float64" Name="u">