<?xml version="1.0"?>
<VTKFile type="UnstructuredGrid" version="0.1" byte_order="LittleEndian">
  <UnstructuredGrid>
    <Piece NumberOfPoints="16" NumberOfCells="9">
      <Points>
        <DataArray type="Float64" NumberOfComponents="3" format="ascii">
          0.00000000e+00 3.00000000e+00 0.00000000e+00 
8.33333313e-01 3.00000000e+00 0.00000000e+00 
1.66666663e+00 3.00000000e+00 0.00000000e+00 
2.50000000e+00 3.00000000e+00 0.00000000e+00 
0.00000000e+00 3.33333325e+00 0.00000000e+00 
8.33333313e-01 3.33333325e+00 0.00000000e+00 
1.66666663e+00 3.33333325e+00 0.00000000e+00 
2.50000000e+00 3.33333325e+00 0.00000000e+00 
0.00000000e+00 3.66666675e+00 0.00000000e+00 
8.33333313e-01 3.66666675e+00 0.00000000e+00 
1.66666663e+00 3.66666675e+00 0.00000000e+00 
2.50000000e+00 3.66666675e+00 0.00000000e+00 
0.00000000e+00 4.00000000e+00 0.00000000e+00 
8.33333313e-01 4.00000000e+00 0.00000000e+00 
1.66666663e+00 4.00000000e+00 0.00000000e+00 
2.50000000e+00 4.00000000e+00 0.00000000e+00 

        </DataArray>
      </Points>
      <Cells>
        <DataArray type="Int32" Name="connectivity" format="ascii">
0 1 5 4
4 5 9 8
8 9 13 12
1 2 6 5
5 6 10 9
9 10 14 13
2 3 7 6
6 7 11 10
10 11 15 14

        </DataArray>
        <DataArray type="Int32" Name="offsets" format="ascii">
4 8 12 16 20 24 28 32 36 
        </DataArray>
        <DataArray type="UInt8" Name="types" format="ascii">
9 9 9 9 9 9 9 9 9 
        </DataArray>
      </Cells>
      <PointData>
        <DataArray type="Float64" Name="u">
          0.00000000e+00 0.00000000e+00 0.00000000e+00 0.00000000e+00 9.77777778e+01 9.42343926e+01 9.51430486e+01 8.67010849e+01 1.71111111e+02 1.67758537e+02 1.69205438e+02 1.59134454e+02 2.20000000e+02 2.19110609e+02 2.14640758e+02 2.11242103e+02 
        </DataArray>
        <DataArray type="Float64" Name="v">
          0.00000000e+00 0.00000000e+00 0.00000000e+00 0.00000000e+00 0.00000000e+00 1.29972350e+00 2.70278214e+00 1.25393367e+00 0.00000000e+00 7.90078233e-01 2.77100647e+00 2.93319766e+00 0.00000000e+00 2.36637766e+00 5.45587991e+00 7.70040645e+00 
        </DataArray>
        <DataArray type="Float64" Name="p">
          -7.87084109e+03 -8.97256713e+03 -1.00742932e+04 -1.11760192e+04 -7.97639700e+03 -9.05514950e+03 -1.01339020e+04 -1.12126545e+04 -8.08195291e+03 -9.13773187e+03 -1.01935108e+04 -1.12492898e+04 -8.18750883e+03 -9.22031424e+03 -1.02531197e+04 -1.12859251e+04 
        </DataArray>
      </PointData>
    </Piece>
    <Piece NumberOfPoints="16" NumberOfCells="9">
      <Points>
        <DataArray type="Float64" NumberOfComponents="3" format="ascii">
          0.00000000e+00 4.00000000e+00 0.00000000e+00 
8.33333313e-01 4.00000000e+00 0.00000000e+00 
1.66666663e+00 4.00000000e+00 0.00000000e+00 
2.50000000e+00 4.00000000e+00 0.00000000e+00 
0.00000000e+00 4.33333349e+00 0.00000000e+00 
8.33333313e-01 4.33333349e+00 0.00000000e+00 
1.66666663e+00 4.33333349e+00 0.00000000e+00 
2.50000000e+00 4.33333349e+00 0.00000000e+00 
0.00000000e+00 4.66666651e+00 0.00000000e+00 
8.33333313e-01 4.66666651e+00 0.00000000e+00 
1.66666663e+00 4.66666651e+00 0.00000000e+00 
2.50000000e+00 4.66666651e+00 0.00000000e+00 
0.00000000e+00 5.00000000e+00 0.00000000e+00 
8.33333313e-01 5.00000000e+00 0.00000000e+00 
1.66666663e+00 5.00000000e+00 0.00000000e+00 
2.50000000e+00 5.00000000e+00 0.00000000e+00 

        </DataArray>
      </Points>
      <Cells>
        <DataArray type="Int32" Name="connectivity" format="ascii">
0 1 5 4
4 5 9 8
8 9 13 12
1 2 6 5
5 6 10 9
9 10 14 13
2 3 7 6
6 7 11 10
10 11 15 14

        </DataArray>
        <DataArray type="Int32" Name="offsets" format="ascii">
4 8 12 16 20 24 28 32 36 
        </DataArray>
        <DataArray type="UInt8" Name="types" format="ascii">
9 9 9 9 9 9 9 9 9 
        </DataArray>
      </Cells>
      <PointData>
        <DataArray type="Float64" Name="u">
          2.20000000e+02 2.19110609e+02 2.14640758e+02 2.11242103e+02 2.44444444e+02 2.43722823e+02 2.44099584e+02 2.40329851e+02 2.44444444e+02 2.45032526e+02 2.44948267e+02 2.45656035e+02 2.20000000e+02 2.23537351e+02 2.18542909e+02 2.26883412e+02 
        </DataArray>
        <DataArray type="Float64" Name="v">
          0.00000000e+00 2.36637766e+00 5.45587991e+00 7.70040645e+00 0.00000000e+00 2.83688852e+00 8.19182624e+00 6.05024158e+00 0.00000000e+00 2.56732272e+00 8.42307167e+00 5.69081196e+00 0.00000000e+00 2.60673595e+00 5.94498584e+00 9.74541081e+00 
        </DataArray>
        <DataArray type="Float64" Name="p">
          -8.14753515e+03 -9.38416199e+03 -1.06207888e+04 -1.18574157e+04 -8.77981925e+03 -9.84065098e+03 -1.09014827e+04 -1.19623144e+04 -9.41210335e+03 -1.02971400e+04 -1.11821766e+04 -1.20672132e+04 -1.00443875e+04 -1.07536290e+04 -1.14628705e+04 -1.21721120e+04 
        </DataArray>
      </PointData>
    </Piece>
    <Piece NumberOfPoints="16" NumberOfCells="9">
      <Points>
        <DataArray type="Float64" NumberOfComponents="3" format="ascii">
          0.00000000e+00 5.00000000e+00 0.00000000e+00 
8.33333313e-01 5.00000000e+00 0.00000000e+00 
1.66666663e+00 5.00000000e+00 0.00000000e+00 
2.50000000e+00 5.00000000e+00 0.00000000e+00 
0.00000000e+00 5.33333349e+00 0.00000000e+00 
8.33333313e-01 5.33333349e+00 0.00000000e+00 
1.66666663e+00 5.33333349e+00 0.00000000e+00 
2.50000000e+00 5.33333349e+00 0.00000000e+00 
0.00000000e+00 5.66666651e+00 0.00000000e+00 
8.33333313e-01 5.66666651e+00 0.00000000e+00 
1.66666663e+00 5.66666651e+00 0.00000000e+00 
2.50000000e+00 5.66666651e+00 0.00000000e+00 
0.00000000e+00 6.00000000e+00 0.00000000e+00 
8.33333313e-01 6.00000000e+00 0.00000000e+00 
1.66666663e+00 6.00000000e+00 0.00000000e+00 
2.50000000e+00 6.00000000e+00 0.00000000e+00 

        </DataArray>
      </Points>
      <Cells>
        <DataArray type="Int32" Name="connectivity" format="ascii">
0 1 5 4
4 5 9 8
8 9 13 12
1 2 6 5
5 6 10 9
9 10 14 13
2 3 7 6
6 7 11 10
10 11 15 14

        </DataArray>
        <DataArray type="Int32" Name="offsets" format="ascii">
4 8 12 16 20 24 28 32 36 
        </DataArray>
        <DataArray type="UInt8" Name="types" format="ascii">
9 9 9 9 9 9 9 9 9 
        </DataArray>
      </Cells>
      <PointData>
        <DataArray type="Float64" Name="u">
          2.20000000e+02 2.23537351e+02 2.18542909e+02 2.26883412e+02 1.71111111e+02 1.74600782e+02 1.74507100e+02 1.81309282e+02 9.77777778e+01 1.01555476e+02 1.01304275e+02 1.14785616e+02 0.00000000e+00 0.00000000e+00 0.00000000e+00 0.00000000e+00 
        </DataArray>
        <DataArray type="Float64" Name="v">
          0.00000000e+00 2.60673595e+00 5.94498584e+00 9.74541081e+00 0.00000000e+00 7.22112295e-01 4.05448164e+00 4.29537733e+00 0.00000000e+00 1.56174174e+00 4.18695305e+00 3.37443412e+00 0.00000000e+00 0.00000000e+00 0.00000000e+00 0.00000000e+00 
        </DataArray>
        <DataArray type="Float64" Name="p">
          -9.98552429e+03 -1.09312700e+04 -1.18770158e+04 -1.28227615e+04 -1.01155005e+04 -1.10569942e+04 -1.19984879e+04 -1.29399815e+04 -1.02454767e+04 -1.11827183e+04 -1.21199600e+04 -1.30572016e+04 -1.03754530e+04 -1.13084425e+04 -1.22414320e+04 -1.31744216e+04 
        </DataArray>
      </PointData>
    </Piece>
    <Piece NumberOfPoints="16" NumberOfCells="9">
      <Points>
        <DataArray type="Float64" NumberOfComponents="3" format="ascii">
          2.50000000e+00 0.00000000e+00 0.00000000e+00 
3.33333325e+00 0.00000000e+00 0.00000000e+00 
4.16666651e+00 0.00000000e+00 0.00000000e+00 
5.00000000e+00 0.00000000e+00 0.00000000e+00 
2.50000000e+00 3.33333343e-01 0.00000000e+00 
3.33333325e+00 3.33333343e-01 0.00000000e+00 
4.16666651e+00 3.33333343e-01 0.00000000e+00 
5.00000000e+00 3.33333343e-01 0.00000000e+00 
2.50000000e+00 6.66666687e-01 0.00000000e+00 
3.33333325e+00 6.66666687e-01 0.00000000e+00 
4.16666651e+00 6.66666687e-01 0.00000000e+00 
5.00000000e+00 6.66666687e-01 0.00000000e+00 
2.50000000e+00 1.00000000e+00 0.00000000e+00 
3.33333325e+00 1.00000000e+00 0.00000000e+00 
4.16666651e+00 1.00000000e+00 0.00000000e+00 
5.00000000e+00 1.00000000e+00 0.00000000e+00 

        </DataArray>
      </Points>
      <Cells>
        <DataArray type="Int32" Name="connectivity" format="ascii">
0 1 5 4
4 5 9 8
8 9 13 12
1 2 6 5
5 6 10 9
9 10 14 13
2 3 7 6
6 7 11 10
10 11 15 14

        </DataArray>
        <DataArray type="Int32" Name="offsets" format="ascii">
4 8 12 16 20 24 28 32 36 
        </DataArray>
        <DataArray type="UInt8" Name="types" format="ascii">
9 9 9 9 9 9 9 9 9 
        </DataArray>
      </Cells>
      <PointData>
        <DataArray type="Float64" Name="u">
          0.00000000e+00 0.00000000e+00 0.00000000e+00 0.00000000e+00 0.00000000e+00 -2.03724670e+00 -3.68138519e+00 -6.56298588e+00 0.00000000e+00 -3.60320306e+00 -6.77084406e+00 -1.11529925e+01 0.00000000e+00 -4.59808319e+00 -8.82115427e+00 -1.40944054e+01 
        </DataArray>
        <DataArray type="Float64" Name="v">
          0.00000000e+00 0.00000000e+00 0.00000000e+00 0.00000000e+00 0.00000000e+00 6.23328965e-01 6.14899443e-01 6.51514243e-01 0.00000000e+00 1.86632249e+00 1.83360155e+00 1.51207972e+00 0.00000000e+00 4.12409858e+00 3.91126444e+00 2.79084715e+00 
        </DataArray>
        <DataArray type="Float64" Name="p">
          -1.10764885e+04 -1.10594594e+04 -1.10424304e+04 -1.10254013e+04 -1.10713244e+04 -1.10525695e+04 -1.10338146e+04 -1.10150597e+04 -1.10661603e+04 -1.10456796e+04 -1.10251988e+04 -1.10047181e+04 -1.10609963e+04 -1.10387897e+04 -1.10165831e+04 -1.09943764e+04 
        </DataArray>
      </PointData>
    </Piece>
    <Piece NumberOfPoints="16" NumberOfCells="9">
      <Points>
        <DataArray type="Float64" NumberOfComponents="3" format="ascii">
          2.50000000e+00 1.00000000e+00 0.00000000e+00 
3.33333325e+00 1.00000000e+00 0.00000000e+00 
4.16666651e+00 1.00000000e+00 0.00000000e+00 
5.00000000e+00 1.00000000e+00 0.00000000e+00 
2.50000000e+00 1.33333337e+00 0.00000000e+00 
3.33333325e+00 1.33333337e+00 0.00000000e+00 
4.16666651e+00 1.33333337e+00 0.00000000e+00 
5.00000000e+00 1.33333337e+00 0.00000000e+00 
2.50000000e+00 1.66666663e+00 0.00000000e+00 
3.33333325e+00 1.66666663e+00 0.00000000e+00 
4.16666651e+00 1.66666663e+00 0.00000000e+00 
5.00000000e+00 1.66666663e+00 0.00000000e+00 
2.50000000e+00 2.00000000e+00 0.00000000e+00 
3.33333325e+00 2.00000000e+00 0.00000000e+00 
4.16666651e+00 2.00000000e+00 0.00000000e+00 
5.00000000e+00 2.00000000e+00 0.00000000e+00 

        </DataArray>
      </Points>
      <Cells>
        <DataArray type="Int32" Name="connectivity" format="ascii">
0 1 5 4
4 5 9 8
8 9 13 12
1 2 6 5
5 6 10 9
9 10 14 13
2 3 7 6
6 7 11 10
10 11 15 14

        </DataArray>
        <DataArray type="Int32" Name="offsets" format="ascii">
4 8 12 16 20 24 28 32 36 
        </DataArray>
        <DataArray type="UInt8" Name="types" format="ascii">
9 9 9 9 9 9 9 9 9 
        </DataArray>
      </Cells>
      <PointData>
        <DataArray type="Float64" Name="u">
          0.00000000e+00 -4.59808319e+00 -8.82115427e+00 -1.40944054e+01 0.00000000e+00 -5.75720659e+00 -1.02686802e+01 -1.52580149e+01 0.00000000e+00 -6.02093610e+00 -9.96784180e+00 -1.40717108e+01 0.00000000e+00 -4.81309383e+00 -7.08808148e+00 -9.89759675e+00 
        </DataArray>
        <DataArray type="Float64" Name="v">
          0.00000000e+00 4.12409858e+00 3.91126444e+00 2.79084715e+00 0.00000000e+00 7.08213623e+00 6.27514261e+00 3.76462702e+00 0.00000000e+00 9.53699642e+00 8.05918055e+00 4.74162016e+00 0.00000000e+00 1.24847062e+01 9.46214053e+00 5.84886778e+00 
        </DataArray>
        <DataArray type="Float64" Name="p">
          -1.10839628e+04 -1.10609361e+04 -1.10379093e+04 -1.10148826e+04 -1.11295418e+04 -1.11008637e+04 -1.10721856e+04 -1.10435076e+04 -1.11751207e+04 -1.11407913e+04 -1.11064619e+04 -1.10721325e+04 -1.12206996e+04 -1.11807189e+04 -1.11407382e+04 -1.11007575e+04 
        </DataArray>
      </PointData>
    </Piece>
    <Piece NumberOfPoints="16" NumberOfCells="9">
      <Points>
        <DataArray type="Float64" NumberOfComponents="3" format="ascii">
          2.50000000e+00 2.00000000e+00 0.00000000e+00 
3.33333325e+00 2.00000000e+00 0.00000000e+00 
4.16666651e+00 2.00000000e+00 0.00000000e+00 
5.00000000e+00 2.00000000e+00 0.00000000e+00 
2.50000000e+00 2.33333325e+00 0.00000000e+00 
3.33333325e+00 2.33333325e+00 0.00000000e+00 
4.16666651e+00 2.33333325e+00 0.00000000e+00 
5.00000000e+00 2.33333325e+00 0.00000000e+00 
2.50000000e+00 2.66666675e+00 0.00000000e+00 
3.33333325e+00 2.66666675e+00 0.00000000e+00 
4.16666651e+00 2.66666675e+00 0.00000000e+00 
5.00000000e+00 2.66666675e+00 0.00000000e+00 
2.50000000e+00 3.00000000e+00 0.00000000e+00 
3.33333325e+00 3.00000000e+00 0.00000000e+00 
4.16666651e+00 3.00000000e+00 0.00000000e+00 
5.00000000e+00 3.00000000e+00 0.00000000e+00 

        </DataArray>
      </Points>
      <Cells>
        <DataArray type="Int32" Name="connectivity" format="ascii">
0 1 5 4
4 5 9 8
8 9 13 12
1 2 6 5
5 6 10 9
9 10 14 13
2 3 7 6
6 7 11 10
10 11 15 14

        </DataArray>
        <DataArray type="Int32" Name="offsets" format="ascii">
4 8 12 16 20 24 28 32 36 
        </DataArray>
        <DataArray type="UInt8" Name="types" format="ascii">
9 9 9 9 9 9 9 9 9 
        </DataArray>
      </Cells>
      <PointData>
        <DataArray type="Float64" Name="u">
          0.00000000e+00 -4.81309383e+00 -7.08808148e+00 -9.89759675e+00 0.00000000e+00 -3.52036490e+00 -3.19500027e+00 -6.86460588e-01 0.00000000e+00 5.52118033e+00 8.55826991e+00 1.51672974e+01 0.00000000e+00 3.75685671e+01 3.69684228e+01 4.18754094e+01 
        </DataArray>
        <DataArray type="Float64" Name="v">
          0.00000000e+00 1.24847062e+01 9.46214053e+00 5.84886778e+00 0.00000000e+00 1.49244209e+01 8.94976204e+00 5.03418595e+00 0.00000000e+00 1.38868198e+01 8.60798517e+00 4.53814238e+00 0.00000000e+00 6.62616469e+00 5.75850856e+00 4.36725897e+00 
        </DataArray>
        <DataArray type="Float64" Name="p">
          -1.14131174e+04 -1.13405590e+04 -1.12680006e+04 -1.11954422e+04 -1.16136024e+04 -1.14435090e+04 -1.12734155e+04 -1.11033221e+04 -1.18140873e+04 -1.15464589e+04 -1.12788305e+04 -1.10112021e+04 -1.20145723e+04 -1.16494089e+04 -1.12842454e+04 -1.09190820e+04 
        </DataArray>
      </PointData>
    </Piece>
    <Piece NumberOfPoints="16" NumberOfCells="9">
      <Points>
        <DataArray type="Float64" NumberOfComponents="3" format="ascii">
          2.50000000e+00 3.00000000e+00 0.00000000e+00 
3.33333325e+00 3.00000000e+00 0.00000000e+00 
4.16666651e+00 3.00000000e+00 0.00000000e+00 
5.00000000e+00 3.00000000e+00 0.00000000e+00 
2.50000000e+00 3.33333325e+00 0.00000000e+00 
3.33333325e+00 3.33333325e+00 0.00000000e+00 
4.16666651e+00 3.33333325e+00 0.00000000e+00 
5.00000000e+00 3.33333325e+00 0.00000000e+00 
2.50000000e+00 3.66666675e+00 0.00000000e+00 
3.33333325e+00 3.66666675e+00 0.00000000e+00 
4.16666651e+00 3.66666675e+00 0.00000000e+00 
5.00000000e+00 3.66666675e+00 0.00000000e+00 
2.50000000e+00 4.00000000e+00 0.00000000e+00 
3.33333325e+00 4.00000000e+00 0.00000000e+00 
4.16666651e+00 4.00000000e+00 0.00000000e+00 
5.00000000e+00 4.00000000e+00 0.00000000e+00 

        </DataArray>
      </Points>
      <Cells>
        <DataArray type="Int32" Name="connectivity" format="ascii">
0 1 5 4
4 5 9 8
8 9 13 12
1 2 6 5
5 6 10 9
9 10 14 13
2 3 7 6
6 7 11 10
10 11 15 14

        </DataArray>
        <DataArray type="Int32" Name="offsets" format="ascii">
4 8 12 16 20 24 28 32 36 
        </DataArray>
        <DataArray type="UInt8" Name="types" format="ascii">
9 9 9 9 9 9 9 9 9 
        </DataArray>
      </Cells>
      <PointData>
        <DataArray type="Float64" Name="u">
          0.00000000e+00 3.75685671e+01 3.69684228e+01 4.18754094e+01 8.67010849e+01 8.82084155e+01 8.06824933e+01 7.83532694e+01 1.59134454e+02 1.53150695e+02 1.41176929e+02 1.31460047e+02 2.11242103e+02 2.03022149e+02 1.96154959e+02 1.80504641e+02 
        </DataArray>
        <DataArray type="Float64" Name="v">
          0.00000000e+00 6.62616469e+00 5.75850856e+00 4.36725897e+00 1.25393367e+00 1.79866629e+00 8.06704444e+00 7.75429849e+00 2.93319766e+00 1.53743896e+00 6.46973942e+00 9.30071956e+00 7.70040645e+00 5.55912289e+00 1.21744307e+01 1.93916995e+01 
        </DataArray>
        <DataArray type="Float64" Name="p">
          -1.21114061e+04 -1.15947246e+04 -1.10780430e+04 -1.05613615e+04 -1.20495965e+04 -1.16533373e+04 -1.12570781e+04 -1.08608189e+04 -1.19877868e+04 -1.17119500e+04 -1.14361131e+04 -1.11602763e+04 -1.19259772e+04 -1.17705627e+04 -1.16151482e+04 -1.14597337e+04 
        </DataArray>
      </PointData>
    </Piece>
    <Piece NumberOfPoints="16" NumberOfCells="9">
      <Points>
        <DataArray type="Float64" NumberOfComponents="3" format="ascii">
          2.50000000e+00 4.00000000e+00 0.00000000e+00 
3.33333325e+00 4.00000000e+00 0.00000000e+00 
4.16666651e+00 4.00000000e+00 0.00000000e+00 
5.00000000e+00 4.00000000e+00 0.00000000e+00 
2.50000000e+00 4.33333349e+00 0.00000000e+00 
3.33333325e+00 4.33333349e+00 0.00000000e+00 
4.16666651e+00 4.33333349e+00 0.00000000e+00 
5.00000000e+00 4.33333349e+00 0.00000000e+00 
2.50000000e+00 4.66666651e+00 0.00000000e+00 
3.33333325e+00 4.66666651e+00 0.00000000e+00 
4.16666651e+00 4.66666651e+00 0.00000000e+00 
5.00000000e+00 4.66666651e+00 0.00000000e+00 
2.50000000e+00 5.00000000e+00 0.00000000e+00 
3.33333325e+00 5.00000000e+00 0.00000000e+00 
4.16666651e+00 5.00000000e+00 0.00000000e+00 
5.00000000e+00 5.00000000e+00 0.00000000e+00 

        </DataArray>
      </Points>
      <Cells>
        <DataArray type="Int32" Name="connectivity" format="ascii">
0 1 5 4
4 5 9 8
8 9 13 12
1 2 6 5
5 6 10 9
9 10 14 13
2 3 7 6
6 7 11 10
10 11 15 14

        </DataArray>
        <DataArray type="Int32" Name="offsets" format="ascii">
4 8 12 16 20 24 28 32 36 
        </DataArray>
        <DataArray type="UInt8" Name="types" format="ascii">
9 9 9 9 9 9 9 9 9 
        </DataArray>
      </Cells>
      <PointData>
        <DataArray type="Float64" Name="u">
          2.11242103e+02 2.03022149e+02 1.96154959e+02 1.80504641e+02 2.40329851e+02 2.32595155e+02 2.29250792e+02 2.15786603e+02 2.45656035e+02 2.39780482e+02 2.37583067e+02 2.31831465e+02 2.26883412e+02 2.22243299e+02 2.24899935e+02 2.24017491e+02 
        </DataArray>
        <DataArray type="Float64" Name="v">
          7.70040645e+00 5.55912289e+00 1.21744307e+01 1.93916995e+01 6.05024158e+00 1.14577113e+01 2.04535264e+01 1.65724997e+01 5.69081196e+00 1.04758750e+01 2.29547828e+01 1.69198280e+01 9.74541081e+00 1.33101246e+01 2.08507543e+01 2.75474538e+01 
        </DataArray>
        <DataArray type="Float64" Name="p">
          -1.10716872e+04 -1.16928439e+04 -1.23140007e+04 -1.29351574e+04 -1.22153121e+04 -1.25499006e+04 -1.28844890e+04 -1.32190775e+04 -1.33589370e+04 -1.34069572e+04 -1.34549773e+04 -1.35029975e+04 -1.45025619e+04 -1.42640138e+04 -1.40254657e+04 -1.37869176e+04 
        </DataArray>
      </PointData>
    </Piece>
    <Piece NumberOfPoints="16" NumberOfCells="9">
      <Points>
        <DataArray type="Float64" NumberOfComponents="3" format="ascii">
          2.50000000e+00 5.00000000e+00 0.00000000e+00 
3.33333325e+00 5.00000000e+00 0.00000000e+00 
4.16666651e+00 5.00000000e+00 0.00000000e+00 
5.00000000e+00 5.00000000e+00 0.00000000e+00 
2.50000000e+00 5.33333349e+00 0.00000000e+00 
3.33333325e+00 5.33333349e+00 0.00000000e+00 
4.16666651e+00 5.33333349e+00 0.00000000e+00 
5.00000000e+00 5.33333349e+00 0.00000000e+00 
2.50000000e+00 5.66666651e+00 0.00000000e+00 
3.33333325e+00 5.66666651e+00 0.00000000e+00 
4.16666651e+00 5.66666651e+00 0.00000000e+00 
5.00000000e+00 5.66666651e+00 0.00000000e+00 
2.50000000e+00 6.00000000e+00 0.00000000e+00 
3.33333325e+00 6.00000000e+00 0.00000000e+00 
4.16666651e+00 6.00000000e+00 0.00000000e+00 
5.00000000e+00 6.00000000e+00 0.00000000e+00 

        </DataArray>
      </Points>
      <Cells>
        <DataArray type="Int32" Name="connectivity" format="ascii">
0 1 5 4
4 5 9 8
8 9 13 12
1 2 6 5
5 6 10 9
9 10 14 13
2 3 7 6
6 7 11 10
10 11 15 14

        </DataArray>
        <DataArray type="Int32" Name="offsets" format="ascii">
4 8 12 16 20 24 28 32 36 
        </DataArray>
        <DataArray type="UInt8" Name="types" format="ascii">
9 9 9 9 9 9 9 9 9 
        </DataArray>
      </Cells>
      <PointData>
        <DataArray type="Float64" Name="u">
          2.26883412e+02 2.22243299e+02 2.24899935e+02 2.24017491e+02 1.81309282e+02 1.81800013e+02 1.90095879e+02 1.95003908e+02 1.14785616e+02 1.19317823e+02 1.34955019e+02 1.51347320e+02 0.00000000e+00 5.78326304e+01 7.60991608e+01 1.01636512e+02 
        </DataArray>
        <DataArray type="Float64" Name="v">
          9.74541081e+00 1.33101246e+01 2.08507543e+01 2.75474538e+01 4.29537733e+00 1.33501013e+01 2.01253738e+01 1.71866053e+01 3.37443412e+00 1.36985125e+01 2.10813979e+01 1.29370562e+01 0.00000000e+00 1.44803040e+00 7.43010533e+00 1.33252629e+01 
        </DataArray>
        <DataArray type="Float64" Name="p">
          -1.42913316e+04 -1.46612094e+04 -1.50310873e+04 -1.54009651e+04 -1.52719719e+04 -1.52537466e+04 -1.52355212e+04 -1.52172959e+04 -1.62526121e+04 -1.58462837e+04 -1.54399552e+04 -1.50336268e+04 -1.72332524e+04 -1.64388208e+04 -1.56443892e+04 -1.48499576e+04 
        </DataArray>
      </PointData>
    </Piece>
    <Piece NumberOfPoints="16" NumberOfCells="9">
      <Points>
        <DataArray type="Float64" NumberOfComponents="3" format="ascii">
          2.50000000e+00 6.00000000e+00 0.00000000e+00 
3.33333325e+00 6.00000000e+00 0.00000000e+00 
4.16666651e+00 6.00000000e+00 0.00000000e+00 
5.00000000e+00 6.00000000e+00 0.00000000e+00 
2.50000000e+00 6.33333349e+00 0.00000000e+00 
3.33333325e+00 6.33333349e+00 0.00000000e+00 
4.16666651e+00 6.33333349e+00 0.00000000e+00 
5.00000000e+00 6.33333349e+00 0.00000000e+00 
2.50000000e+00 6.66666651e+00 0.00000000e+00 
3.33333325e+00 6.66666651e+00 0.00000000e+00 
4.16666651e+00 6.66666651e+00 0.00000000e+00 
5.00000000e+00 6.66666651e+00 0.00000000e+00 
2.50000000e+00 7.00000000e+00 0.00000000e+00 
3.33333325e+00 7.00000000e+00 0.00000000e+00 
4.16666651e+00 7.00000000e+00 0.00000000e+00 
5.00000000e+00 7.00000000e+00 0.00000000e+00 

        </DataArray>
      </Points>
      <Cells>
        <DataArray type="Int32" Name="connectivity" format="ascii">
0 1 5 4
4 5 9 8
8 9 13 12
1 2 6 5
5 6 10 9
9 10 14 13
2 3 7 6
6 7 11 10
10 11 15 14

        </DataArray>
        <DataArray type="Int32" Name="offsets" format="ascii">
4 8 12 16 20 24 28 32 36 
        </DataArray>
        <DataArray type="UInt8" Name="types" format="ascii">
9 9 9 9 9 9 9 9 9 
        </DataArray>
      </Cells>
      <PointData>
        <DataArray type="Float64" Name="u">
          0.00000000e+00 5.78326304e+01 7.60991608e+01 1.01636512e+02 0.00000000e+00 1.26603109e+01 2.80162798e+01 5.28339127e+01 0.00000000e+00 -1.32711930e+00 5.90900138e+00 2.05404345e+01 0.00000000e+00 -4.60180359e+00 -3.44206682e+00 -4.65121155e-01 
        </DataArray>
        <DataArray type="Float64" Name="v">
          0.00000000e+00 1.44803040e+00 7.43010533e+00 1.33252629e+01 0.00000000e+00 -1.30282916e+01 -3.37926811e+00 5.48520156e+00 0.00000000e+00 -1.71464665e+01 -8.07527195e+00 -1.30562211e-01 0.00000000e+00 -1.56948463e+01 -1.20337248e+01 -5.37238979e+00 
        </DataArray>
        <DataArray type="Float64" Name="p">
          -1.68662625e+04 -1.63879007e+04 -1.59095390e+04 -1.54311772e+04 -1.66068982e+04 -1.62768051e+04 -1.59467119e+04 -1.56166188e+04 -1.63475338e+04 -1.61657094e+04 -1.59838849e+04 -1.58020604e+04 -1.60881695e+04 -1.60546137e+04 -1.60210578e+04 -1.59875020e+04 
        </DataArray>
      </PointData>
    </Piece>
    <Piece NumberOfPoints="16" NumberOfCells="9">
      <Points>
        <DataArray type="Float64" NumberOfComponents="3" format="ascii">
          2.50000000e+00 7.00000000e+00 0.00000000e+00 
3.33333325e+00 7.00000000e+00 0.00000000e+00 
4.16666651e+00 7.00000000e+00 0.00000000e+00 
5.00000000e+00 7.00000000e+00 0.00000000e+00 
2.50000000e+00 7.33333349e+00 0.00000000e+00 
3.33333325e+00 7.33333349e+00 0.00000000e+00 
4.16666651e+00 7.33333349e+00 0.00000000e+00 
5.00000000e+00 7.33333349e+00 0.00000000e+00 
2.50000000e+00 7.66666651e+00 0.00000000e+00 
3.33333325e+00 7.66666651e+00 0.00000000e+00 
4.16666651e+00 7.66666651e+00 0.00000000e+00 
5.00000000e+00 7.66666651e+00 0.00000000e+00 
2.50000000e+00 8.00000000e+00 0.00000000e+00 
3.33333325e+00 8.00000000e+00 0.00000000e+00 
4.16666651e+00 8.00000000e+00 0.00000000e+00 
5.00000000e+00 8.00000000e+00 0.00000000e+00 

        </DataArray>
      </Points>
      <Cells>
        <DataArray type="Int32" Name="connectivity" format="ascii">
0 1 5 4
4 5 9 8
8 9 13 12
1 2 6 5
5 6 10 9
9 10 14 13
2 3 7 6
6 7 11 10
10 11 15 14

        </DataArray>
        <DataArray type="Int32" Name="offsets" format="ascii">
4 8 12 16 20 24 28 32 36 
        </DataArray>
        <DataArray type="UInt8" Name="types" format="ascii">
9 9 9 9 9 9 9 9 9 
        </DataArray>
      </Cells>
      <PointData>
        <DataArray type="Float64" Name="u">
          0.00000000e+00 -4.60180359e+00 -3.44206682e+00 -4.65121155e-01 0.00000000e+00 -6.80707973e+00 -1.01385878e+01 -1.24206959e+01 0.00000000e+00 -7.26786080e+00 -1.28243873e+01 -1.86245727e+01 0.00000000e+00 -6.38878100e+00 -1.24150724e+01 -2.02903394e+01 
        </DataArray>
        <DataArray type="Float64" Name="v">
          0.00000000e+00 -1.56948463e+01 -1.20337248e+01 -5.37238979e+00 0.00000000e+00 -1.28340806e+01 -1.18686423e+01 -5.91918574e+00 0.00000000e+00 -9.93214956e+00 -9.84378312e+00 -5.91413199e+00 0.00000000e+00 -6.10299977e+00 -6.37927470e+00 -5.55477295e+00 
        </DataArray>
        <DataArray type="Float64" Name="p">
          -1.58454782e+04 -1.58355233e+04 -1.58255685e+04 -1.58156137e+04 -1.57939847e+04 -1.57755772e+04 -1.57571697e+04 -1.57387623e+04 -1.57424912e+04 -1.57156311e+04 -1.56887710e+04 -1.56619108e+04 -1.56909978e+04 -1.56556850e+04 -1.56203722e+04 -1.55850594e+04 
        </DataArray>
      </PointData>
    </Piece>
    <Piece NumberOfPoints="16" NumberOfCells="9">
      <Points>
        <DataArray type="Float64" NumberOfComponents="3" format="ascii">
          2.50000000e+00 8.00000000e+00 0.00000000e+00 
3.33333325e+00 8.00000000e+00 0.00000000e+00 
4.16666651e+00 8.00000000e+00 0.00000000e+00 
5.00000000e+00 8.00000000e+00 0.00000000e+00 
2.50000000e+00 8.33333302e+00 0.00000000e+00 
3.33333325e+00 8.33333302e+00 0.00000000e+00 
4.16666651e+00 8.33333302e+00 0.00000000e+00 
5.00000000e+00 8.33333302e+00 0.00000000e+00 
2.50000000e+00 8.66666698e+00 0.00000000e+00 
3.33333325e+00 8.66666698e+00 0.00000000e+00 
4.16666651e+00 8.66666698e+00 0.00000000e+00 
5.00000000e+00 8.66666698e+00 0.00000000e+00 
2.50000000e+00 9.00000000e+00 0.00000000e+00 
3.33333325e+00 9.00000000e+00 0.00000000e+00 
4.16666651e+00 9.00000000e+00 0.00000000e+00 
5.00000000e+00 9.00000000e+00 0.00000000e+00 

        </DataArray>
      </Points>
      <Cells>
        <DataArray type="Int32" Name="connectivity" format="ascii">
0 1 5 4
4 5 9 8
8 9 13 12
1 2 6 5
5 6 10 9
9 10 14 13
2 3 7 6
6 7 11 10
10 11 15 14

        </DataArray>
        <DataArray type="Int32" Name="offsets" format="ascii">
4 8 12 16 20 24 28 32 36 
        </DataArray>
        <DataArray type="UInt8" Name="types" format="ascii">
9 9 9 9 9 9 9 9 9 
        </DataArray>
      </Cells>
      <PointData>
        <DataArray type="Float64" Name="u">
          0.00000000e+00 -6.38878100e+00 -1.24150724e+01 -2.02903394e+01 0.00000000e+00 -5.37842068e+00 -1.02182390e+01 -1.79034601e+01 0.00000000e+00 -3.15768443e+00 -5.73370721e+00 -1.11677570e+01 0.00000000e+00 0.00000000e+00 0.00000000e+00 0.00000000e+00 
        </DataArray>
        <DataArray type="Float64" Name="v">
          0.00000000e+00 -6.10299977e+00 -6.37927470e+00 -5.55477295e+00 0.00000000e+00 -2.81275847e+00 -3.06073070e+00 -3.20571482e+00 0.00000000e+00 -9.86001057e-01 -1.10205694e+00 -1.50918791e+00 0.00000000e+00 0.00000000e+00 0.00000000e+00 0.00000000e+00 
        </DataArray>
        <DataArray type="Float64" Name="p">
          -1.56505905e+04 -1.56085834e+04 -1.55665764e+04 -1.55245693e+04 -1.56566857e+04 -1.56176881e+04 -1.55786906e+04 -1.55396930e+04 -1.56627810e+04 -1.56267929e+04 -1.55908047e+04 -1.55548166e+04 -1.56688762e+04 -1.56358976e+04 -1.56029189e+04 -1.55699402e+04 
        </DataArray>
      </PointData>
    </Piece>
    <Piece NumberOfPoints="16" NumberOfCells="9">
      <Points>
        <DataArray type="Float64" NumberOfComponents="3" format="ascii">
          5.00000000e+00 0.00000000e+00 0.00000000e+00 
5.83333349e+00 0.00000000e+00 0.00000000e+00 
6.66666651e+00 0.00000000e+00 0.00000000e+00 
7.50000000e+00 0.00000000e+00 0.00000000e+00 
5.00000000e+00 3.33333343e-01 0.00000000e+00 
5.83333349e+00 3.33333343e-01 0.00000000e+00 
6.66666651e+00 3.33333343e-01 0.00000000e+00 
7.50000000e+00 3.33333343e-01 0.00000000e+00 
5.00000000e+00 6.66666687e-01 0.00000000e+00 
5.83333349e+00 6.66666687e-01 0.00000000e+00 
6.66666651e+00 6.66666687e-01 0.00000000e+00 
7.50000000e+00 6.66666687e-01 0.00000000e+00 
5.00000000e+00 1.00000000e+00 0.00000000e+00 
5.83333349e+00 1.00000000e+00 0.00000000e+00 
6.66666651e+00 1.00000000e+00 0.00000000e+00 
7.50000000e+00 1.00000000e+00 0.00000000e+00 

        </DataArray>
      </Points>
      <Cells>
        <DataArray type="Int32" Name="connectivity" format="ascii">
0 1 5 4
4 5 9 8
8 9 13 12
1 2 6 5
5 6 10 9
9 10 14 13
2 3 7 6
6 7 11 10
10 11 15 14

        </DataArray>
        <DataArray type="Int32" Name="offsets" format="ascii">
4 8 12 16 20 24 28 32 36 
        </DataArray>
        <DataArray type="UInt8" Name="types" format="ascii">
9 9 9 9 9 9 9 9 9 
        </DataArray>
      </Cells>
      <PointData>
        <DataArray type="Float64" Name="u">