<?xml version="1.0"?>
<VTKFile type="UnstructuredGrid" version="0.1" byte_order="LittleEndian">
  <UnstructuredGrid>
    <Piece NumberOfPoints="16" NumberOfCells="9">
      <Points>
        <DataArray type="Float64" NumberOfComponents="3" format="ascii">
          0.00000000e+00 3.00000000e+00 0.00000000e+00 
8.33333313e-01 3.00000000e+00 0.00000000e+00 
1.66666663e+00 3.00000000e+00 0.00000000e+00 
2.50000000e+00 3.00000000e+00 0.00000000e+00 
0.00000000e+00 3.33333325e+00 0.00000000e+00 
8.33333313e-01 3.33333325e+00 0.00000000e+00 
1.66666663e+00 3.33333325e+00 0.00000000e+00 
2.50000000e+00 3.33333325e+00 0.00000000e+00 
0.00000000e+00 3.66666675e+00 0.00000000e+00 
8.33333313e-01 3.66666675e+00 0.00000000e+00 
1.66666663e+00 3.66666675e+00 0.00000000e+00 
2.50000000e+00 3.66666675e+00 0.00000000e+00 
0.00000000e+00 4.00000000e+00 0.00000000e+00 
8.33333313e-01 4.00000000e+00 0.00000000e+00 
1.66666663e+00 4.00000000e+00 0.00000000e+00 
2.50000000e+00 4.00000000e+00 0.00000000e+00 

        </DataArray>
      </Points>
      <Cells>
        <DataArray type="Int32" Name="connectivity" format="ascii">
0 1 5 4
4 5 9 8
8 9 13 12
1 2 6 5
5 6 10 9
9 10 14 13
2 3 7 6
6 7 11 10
10 11 15 14

        </DataArray>
        <DataArray type="Int32" Name="offsets" format="ascii">
4 8 12 16 20 24 28 32 36 
        </DataArray>
        <DataArray type="UInt8" Name="types" format="ascii">
9 9 9 9 9 9 9 9 9 
        </DataArray>
      </Cells>
      <PointData>
        <DataArray type="Float64" Name="u">
          0.00000000e+00 0.00000000e+00 0.00000000e+00 0.00000000e+00 9.77777778e+01 9.83200263e+01 9.81420856e+01 9.90275016e+01 1.71111111e+02 1.71053565e+02 1.71470367e+02 1.71312211e+02 2.20000000e+02 2.19367026e+02 2.20099549e+02 2.19257432e+02 
        </DataArray>
        <DataArray type="Float64" Name="v">
          0.00000000e+00 0.00000000e+00 0.00000000e+00 0.00000000e+00 0.00000000e+00 -2.29580480e-01 2.24604911e-02 -9.65814277e-01 0.00000000e+00 -1.24241664e-01 -1.68459714e-01 -2.75788357e-01 0.00000000e+00 -2.15952808e-01 -9.88351595e-02 -4.99597266e-01 
        </DataArray>
        <DataArray type="Float64" Name="p">
          -4.74254908e+03 -5.77639355e+03 -6.81023801e+03 -7.84408248e+03 -4.74448348e+03 -5.77438284e+03 -6.80428219e+03 -7.83418155e+03 -4.74641789e+03 -5.77237213e+03 -6.79832637e+03 -7.82428061e+03 -4.74835229e+03 -5.77036142e+03 -6.79237055e+03 -7.81437967e+03 
        </DataArray>
      </PointData>
    </Piece>
    <Piece NumberOfPoints="16" NumberOfCells="9">
      <Points>
        <DataArray type="Float64" NumberOfComponents="3" format="ascii">
          0.00000000e+00 4.00000000e+00 0.00000000e+00 
8.33333313e-01 4.00000000e+00 0.00000000e+00 
1.66666663e+00 4.00000000e+00 0.00000000e+00 
2.50000000e+00 4.00000000e+00 0.00000000e+00 
0.00000000e+00 4.33333349e+00 0.00000000e+00 
8.33333313e-01 4.33333349e+00 0.00000000e+00 
1.66666663e+00 4.33333349e+00 0.00000000e+00 
2.50000000e+00 4.33333349e+00 0.00000000e+00 
0.00000000e+00 4.66666651e+00 0.00000000e+00 
8.33333313e-01 4.66666651e+00 0.00000000e+00 
1.66666663e+00 4.66666651e+00 0.00000000e+00 
2.50000000e+00 4.66666651e+00 0.00000000e+00 
0.00000000e+00 5.00000000e+00 0.00000000e+00 
8.33333313e-01 5.00000000e+00 0.00000000e+00 
1.66666663e+00 5.00000000e+00 0.00000000e+00 
2.50000000e+00 5.00000000e+00 0.00000000e+00 

        </DataArray>
      </Points>
      <Cells>
        <DataArray type="Int32" Name="connectivity" format="ascii">
0 1 5 4
4 5 9 8
8 9 13 12
1 2 6 5
5 6 10 9
9 10 14 13
2 3 7 6
6 7 11 10
10 11 15 14

        </DataArray>
        <DataArray type="Int32" Name="offsets" format="ascii">
4 8 12 16 20 24 28 32 36 
        </DataArray>
        <DataArray type="UInt8" Name="types" format="ascii">
9 9 9 9 9 9 9 9 9 
        </DataArray>
      </Cells>
      <PointData>
        <DataArray type="Float64" Name="u">
          2.20000000e+02 2.19367026e+02 2.20099549e+02 2.19257432e+02 2.44444444e+02 2.43703850e+02 2.44332390e+02 2.43488665e+02 2.44444444e+02 2.43703850e+02 2.44332390e+02 2.43488665e+02 2.20000000e+02 2.19367026e+02 2.20099549e+02 2.19257433e+02 
        </DataArray>
        <DataArray type="Float64" Name="v">
          0.00000000e+00 -2.15952808e-01 -9.88351595e-02 -4.99597266e-01 0.00000000e+00 6.83878955e-03 -5.97622235e-02 5.48262913e-02 0.00000000e+00 -6.83847798e-03 5.97627944e-02 -5.48254827e-02 0.00000000e+00 2.15953071e-01 9.88356513e-02 4.99598009e-01 
        </DataArray>
        <DataArray type="Float64" Name="p">
          -4.73395847e+03 -5.76243349e+03 -6.79090852e+03 -7.81938355e+03 -4.73395848e+03 -5.76243351e+03 -6.79090853e+03 -7.81938356e+03 -4.73395850e+03 -5.76243352e+03 -6.79090855e+03 -7.81938357e+03 -4.73395851e+03 -5.76243353e+03 -6.79090856e+03 -7.81938358e+03 
        </DataArray>
      </PointData>
    </Piece>
    <Piece NumberOfPoints="16" NumberOfCells="9">
      <Points>
        <DataArray type="Float64" NumberOfComponents="3" format="ascii">
          0.00000000e+00 5.00000000e+00 0.00000000e+00 
8.33333313e-01 5.00000000e+00 0.00000000e+00 
1.66666663e+00 5.00000000e+00 0.00000000e+00 
2.50000000e+00 5.00000000e+00 0.00000000e+00 
0.00000000e+00 5.33333349e+00 0.00000000e+00 
8.33333313e-01 5.33333349e+00 0.00000000e+00 
1.66666663e+00 5.33333349e+00 0.00000000e+00 
2.50000000e+00 5.33333349e+00 0.00000000e+00 
0.00000000e+00 5.66666651e+00 0.00000000e+00 
8.33333313e-01 5.66666651e+00 0.00000000e+00 
1.66666663e+00 5.66666651e+00 0.00000000e+00 
2.50000000e+00 5.66666651e+00 0.00000000e+00 
0.00000000e+00 6.00000000e+00 0.00000000e+00 
8.33333313e-01 6.00000000e+00 0.00000000e+00 
1.66666663e+00 6.00000000e+00 0.00000000e+00 
2.50000000e+00 6.00000000e+00 0.00000000e+00 

        </DataArray>
      </Points>
      <Cells>
        <DataArray type="Int32" Name="connectivity" format="ascii">
0 1 5 4
4 5 9 8
8 9 13 12
1 2 6 5
5 6 10 9
9 10 14 13
2 3 7 6
6 7 11 10
10 11 15 14

        </DataArray>
        <DataArray type="Int32" Name="offsets" format="ascii">
4 8 12 16 20 24 28 32 36 
        </DataArray>
        <DataArray type="UInt8" Name="types" format="ascii">
9 9 9 9 9 9 9 9 9 
        </DataArray>
      </Cells>
      <PointData>
        <DataArray type="Float64" Name="u">
          2.20000000e+02 2.19367026e+02 2.20099549e+02 2.19257433e+02 1.71111111e+02 1.71053565e+02 1.71470367e+02 1.71312212e+02 9.77777778e+01 9.83200267e+01 9.81420858e+01 9.90275029e+01 0.00000000e+00 0.00000000e+00 0.00000000e+00 0.00000000e+00 
        </DataArray>
        <DataArray type="Float64" Name="v">
          0.00000000e+00 2.15953071e-01 9.88356513e-02 4.99598009e-01 0.00000000e+00 1.24241764e-01 1.68459977e-01 2.75788832e-01 0.00000000e+00 2.29580613e-01 -2.24602463e-02 9.65814696e-01 0.00000000e+00 0.00000000e+00 0.00000000e+00 0.00000000e+00 
        </DataArray>
        <DataArray type="Float64" Name="p">
          -4.74835234e+03 -5.77036146e+03 -6.79237059e+03 -7.81437971e+03 -4.74641794e+03 -5.77237218e+03 -6.79832642e+03 -7.82428066e+03 -4.74448354e+03 -5.77438290e+03 -6.80428225e+03 -7.83418161e+03 -4.74254914e+03 -5.77639361e+03 -6.81023809e+03 -7.84408256e+03 
        </DataArray>
      </PointData>
    </Piece>
    <Piece NumberOfPoints="16" NumberOfCells="9">
      <Points>
        <DataArray type="Float64" NumberOfComponents="3" format="ascii">
          2.50000000e+00 0.00000000e+00 0.00000000e+00 
3.33333325e+00 0.00000000e+00 0.00000000e+00 
4.16666651e+00 0.00000000e+00 0.00000000e+00 
5.00000000e+00 0.00000000e+00 0.00000000e+00 
2.50000000e+00 3.33333343e-01 0.00000000e+00 
3.33333325e+00 3.33333343e-01 0.00000000e+00 
4.16666651e+00 3.33333343e-01 0.00000000e+00 
5.00000000e+00 3.33333343e-01 0.00000000e+00 
2.50000000e+00 6.66666687e-01 0.00000000e+00 
3.33333325e+00 6.66666687e-01 0.00000000e+00 
4.16666651e+00 6.66666687e-01 0.00000000e+00 
5.00000000e+00 6.66666687e-01 0.00000000e+00 
2.50000000e+00 1.00000000e+00 0.00000000e+00 
3.33333325e+00 1.00000000e+00 0.00000000e+00 
4.16666651e+00 1.00000000e+00 0.00000000e+00 
5.00000000e+00 1.00000000e+00 0.00000000e+00 

        </DataArray>
      </Points>
      <Cells>
        <DataArray type="Int32" Name="connectivity" format="ascii">
0 1 5 4
4 5 9 8
8 9 13 12
1 2 6 5
5 6 10 9
9 10 14 13
2 3 7 6
6 7 11 10
10 11 15 14

        </DataArray>
        <DataArray type="Int32" Name="offsets" format="ascii">
4 8 12 16 20 24 28 32 36 
        </DataArray>
        <DataArray type="UInt8" Name="types" format="ascii">
9 9 9 9 9 9 9 9 9 
        </DataArray>
      </Cells>
      <PointData>
        <DataArray type="Float64" Name="u">
          0.00000000e+00 0.00000000e+00 0.00000000e+00 0.00000000e+00 0.00000000e+00 -2.27877094e+00 -4.31186292e+00 -7.72857448e+00 0.00000000e+00 -4.19131058e+00 -8.04002016e+00 -1.36325416e+01 0.00000000e+00 -5.64378698e+00 -1.06721639e+01 -1.71101190e+01 
        </DataArray>
        <DataArray type="Float64" Name="v">
          0.00000000e+00 0.00000000e+00 0.00000000e+00 0.00000000e+00 0.00000000e+00 7.01760295e-01 7.75413429e-01 6.71057108e-01 0.00000000e+00 2.15936462e+00 2.24320172e+00 1.80734350e+00 0.00000000e+00 4.84802828e+00 4.75287619e+00 3.67467342e+00 
        </DataArray>
        <DataArray type="Float64" Name="p">
          -7.63719248e+03 -7.62381671e+03 -7.61044094e+03 -7.59706517e+03 -7.62947106e+03 -7.61517462e+03 -7.60087818e+03 -7.58658174e+03 -7.62174964e+03 -7.60653253e+03 -7.59131543e+03 -7.57609832e+03 -7.61402822e+03 -7.59789044e+03 -7.58175267e+03 -7.56561490e+03 
        </DataArray>
      </PointData>
    </Piece>
    <Piece NumberOfPoints="16" NumberOfCells="9">
      <Points>
        <DataArray type="Float64" NumberOfComponents="3" format="ascii">
          2.50000000e+00 1.00000000e+00 0.00000000e+00 
3.33333325e+00 1.00000000e+00 0.00000000e+00 
4.16666651e+00 1.00000000e+00 0.00000000e+00 
5.00000000e+00 1.00000000e+00 0.00000000e+00 
2.50000000e+00 1.33333337e+00 0.00000000e+00 
3.33333325e+00 1.33333337e+00 0.00000000e+00 
4.16666651e+00 1.33333337e+00 0.00000000e+00 
5.00000000e+00 1.33333337e+00 0.00000000e+00 
2.50000000e+00 1.66666663e+00 0.00000000e+00 
3.33333325e+00 1.66666663e+00 0.00000000e+00 
4.16666651e+00 1.66666663e+00 0.00000000e+00 
5.00000000e+00 1.66666663e+00 0.00000000e+00 
2.50000000e+00 2.00000000e+00 0.00000000e+00 
3.33333325e+00 2.00000000e+00 0.00000000e+00 
4.16666651e+00 2.00000000e+00 0.00000000e+00 
5.00000000e+00 2.00000000e+00 0.00000000e+00 

        </DataArray>
      </Points>
      <Cells>
        <DataArray type="Int32" Name="connectivity" format="ascii">
0 1 5 4
4 5 9 8
8 9 13 12
1 2 6 5
5 6 10 9
9 10 14 13
2 3 7 6
6 7 11 10
10 11 15 14

        </DataArray>
        <DataArray type="Int32" Name="offsets" format="ascii">
4 8 12 16 20 24 28 32 36 
        </DataArray>
        <DataArray type="UInt8" Name="types" format="ascii">
9 9 9 9 9 9 9 9 9 
        </DataArray>
      </Cells>
      <PointData>
        <DataArray type="Float64" Name="u">
          0.00000000e+00 -5.64378698e+00 -1.06721639e+01 -1.71101190e+01 0.00000000e+00 -6.54465815e+00 -1.17469742e+01 -1.78143025e+01 0.00000000e+00 -6.67514826e+00 -1.07564099e+01 -1.49608671e+01 0.00000000e+00 -5.56427926e+00 -6.89821310e+00 -7.62536904e+00 
        </DataArray>
        <DataArray type="Float64" Name="v">
          0.00000000e+00 4.84802828e+00 4.75287619e+00 3.67467342e+00 0.00000000e+00 8.28788038e+00 7.52955930e+00 5.29217512e+00 0.00000000e+00 1.10530077e+01 9.54317153e+00 6.09502965e+00 0.00000000e+00 1.42055094e+01 1.10880594e+01 5.82107928e+00 
        </DataArray>
        <DataArray type="Float64" Name="p">
          -7.60302534e+03 -7.59184980e+03 -7.58067427e+03 -7.56949873e+03 -7.65755130e+03 -7.64099896e+03 -7.62444662e+03 -7.60789428e+03 -7.71207727e+03 -7.69014813e+03 -7.66821898e+03 -7.64628983e+03 -7.76660324e+03 -7.73929729e+03 -7.71199133e+03 -7.68468538e+03 
        </DataArray>
      </PointData>
    </Piece>
    <Piece NumberOfPoints="16" NumberOfCells="9">
      <Points>
        <DataArray type="Float64" NumberOfComponents="3" format="ascii">
          2.50000000e+00 2.00000000e+00 0.00000000e+00 
3.33333325e+00 2.00000000e+00 0.00000000e+00 
4.16666651e+00 2.00000000e+00 0.00000000e+00 
5.00000000e+00 2.00000000e+00 0.00000000e+00 
2.50000000e+00 2.33333325e+00 0.00000000e+00 
3.33333325e+00 2.33333325e+00 0.00000000e+00 
4.16666651e+00 2.33333325e+00 0.00000000e+00 
5.00000000e+00 2.33333325e+00 0.00000000e+00 
2.50000000e+00 2.66666675e+00 0.00000000e+00 
3.33333325e+00 2.66666675e+00 0.00000000e+00 
4.16666651e+00 2.66666675e+00 0.00000000e+00 
5.00000000e+00 2.66666675e+00 0.00000000e+00 
2.50000000e+00 3.00000000e+00 0.00000000e+00 
3.33333325e+00 3.00000000e+00 0.00000000e+00 
4.16666651e+00 3.00000000e+00 0.00000000e+00 
5.00000000e+00 3.00000000e+00 0.00000000e+00 

        </DataArray>
      </Points>
      <Cells>
        <DataArray type="Int32" Name="connectivity" format="ascii">
0 1 5 4
4 5 9 8
8 9 13 12
1 2 6 5
5 6 10 9
9 10 14 13
2 3 7 6
6 7 11 10
10 11 15 14

        </DataArray>
        <DataArray type="Int32" Name="offsets" format="ascii">
4 8 12 16 20 24 28 32 36 
        </DataArray>
        <DataArray type="UInt8" Name="types" format="ascii">
9 9 9 9 9 9 9 9 9 
        </DataArray>
      </Cells>
      <PointData>
        <DataArray type="Float64" Name="u">
          0.00000000e+00 -5.56427926e+00 -6.89821310e+00 -7.62536904e+00 0.00000000e+00 -2.12062739e+00 5.25837785e-01 7.21045893e+00 0.00000000e+00 9.24517950e+00 1.63176283e+01 3.06256650e+01 0.00000000e+00 4.50578721e+01 5.04344072e+01 6.72409488e+01 
        </DataArray>
        <DataArray type="Float64" Name="v">
          0.00000000e+00 1.42055094e+01 1.10880594e+01 5.82107928e+00 0.00000000e+00 1.62192606e+01 9.60426455e+00 3.07983186e+00 0.00000000e+00 1.39349704e+01 7.71860587e+00 4.02500939e-01 0.00000000e+00 3.88849737e+00 9.43197583e-01 -2.04287993e+00 
        </DataArray>
        <DataArray type="Float64" Name="p">
          -7.74048980e+03 -7.75024382e+03 -7.75999785e+03 -7.76975187e+03 -7.95915465e+03 -7.85842514e+03 -7.75769564e+03 -7.65696613e+03 -8.17781949e+03 -7.96660646e+03 -7.75539343e+03 -7.54418039e+03 -8.39648434e+03 -8.07478778e+03 -7.75309121e+03 -7.43139465e+03 
        </DataArray>
      </PointData>
    </Piece>
    <Piece NumberOfPoints="16" NumberOfCells="9">
      <Points>
        <DataArray type="Float64" NumberOfComponents="3" format="ascii">
          2.50000000e+00 3.00000000e+00 0.00000000e+00 
3.33333325e+00 3.00000000e+00 0.00000000e+00 
4.16666651e+00 3.00000000e+00 0.00000000e+00 
5.00000000e+00 3.00000000e+00 0.00000000e+00 
2.50000000e+00 3.33333325e+00 0.00000000e+00 
3.33333325e+00 3.33333325e+00 0.00000000e+00 
4.16666651e+00 3.33333325e+00 0.00000000e+00 
5.00000000e+00 3.33333325e+00 0.00000000e+00 
2.50000000e+00 3.66666675e+00 0.00000000e+00 
3.33333325e+00 3.66666675e+00 0.00000000e+00 
4.16666651e+00 3.66666675e+00 0.00000000e+00 
5.00000000e+00 3.66666675e+00 0.00000000e+00 
2.50000000e+00 4.00000000e+00 0.00000000e+00 
3.33333325e+00 4.00000000e+00 0.00000000e+00 
4.16666651e+00 4.00000000e+00 0.00000000e+00 
5.00000000e+00 4.00000000e+00 0.00000000e+00 

        </DataArray>
      </Points>
      <Cells>
        <DataArray type="Int32" Name="connectivity" format="ascii">
0 1 5 4
4 5 9 8
8 9 13 12
1 2 6 5
5 6 10 9
9 10 14 13
2 3 7 6
6 7 11 10
10 11 15 14

        </DataArray>
        <DataArray type="Int32" Name="offsets" format="ascii">
4 8 12 16 20 24 28 32 36 
        </DataArray>
        <DataArray type="UInt8" Name="types" format="ascii">
9 9 9 9 9 9 9 9 9 
        </DataArray>
      </Cells>
      <PointData>
        <DataArray type="Float64" Name="u">
          0.00000000e+00 4.50578721e+01 5.04344072e+01 6.72409488e+01 9.90275016e+01 1.03320818e+02 1.07547404e+02 1.12517445e+02 1.71312211e+02 1.67831457e+02 1.68014936e+02 1.65902105e+02 2.19257432e+02 2.13960236e+02 2.13624877e+02 2.08317103e+02 
        </DataArray>
        <DataArray type="Float64" Name="v">
          0.00000000e+00 3.88849737e+00 9.43197583e-01 -2.04287993e+00 -9.65814277e-01 -4.76756850e+00 -3.18592382e+00 -6.13481168e-01 -2.75788357e-01 -4.70482443e+00 -4.81700069e+00 -1.75222168e+00 -4.99597266e-01 -3.12051949e+00 -2.79351477e+00 -1.52214811e+00 
        </DataArray>
        <DataArray type="Float64" Name="p">
          -8.49693028e+03 -8.06501135e+03 -7.63309243e+03 -7.20117350e+03 -8.12015282e+03 -7.89619831e+03 -7.67224380e+03 -7.44828929e+03 -7.74337536e+03 -7.72738527e+03 -7.71139517e+03 -7.69540507e+03 -7.36659790e+03 -7.55857222e+03 -7.75054654e+03 -7.94252086e+03 
        </DataArray>
      </PointData>
    </Piece>
    <Piece NumberOfPoints="16" NumberOfCells="9">
      <Points>
        <DataArray type="Float64" NumberOfComponents="3" format="ascii">
          2.50000000e+00 4.00000000e+00 0.00000000e+00 
3.33333325e+00 4.00000000e+00 0.00000000e+00 
4.16666651e+00 4.00000000e+00 0.00000000e+00 
5.00000000e+00 4.00000000e+00 0.00000000e+00 
2.50000000e+00 4.33333349e+00 0.00000000e+00 
3.33333325e+00 4.33333349e+00 0.00000000e+00 
4.16666651e+00 4.33333349e+00 0.00000000e+00 
5.00000000e+00 4.33333349e+00 0.00000000e+00 
2.50000000e+00 4.66666651e+00 0.00000000e+00 
3.33333325e+00 4.66666651e+00 0.00000000e+00 
4.16666651e+00 4.66666651e+00 0.00000000e+00 
5.00000000e+00 4.66666651e+00 0.00000000e+00 
2.50000000e+00 5.00000000e+00 0.00000000e+00 
3.33333325e+00 5.00000000e+00 0.00000000e+00 
4.16666651e+00 5.00000000e+00 0.00000000e+00 
5.00000000e+00 5.00000000e+00 0.00000000e+00 

        </DataArray>
      </Points>
      <Cells>
        <DataArray type="Int32" Name="connectivity" format="ascii">
0 1 5 4
4 5 9 8
8 9 13 12
1 2 6 5
5 6 10 9
9 10 14 13
2 3 7 6
6 7 11 10
10 11 15 14

        </DataArray>
        <DataArray type="Int32" Name="offsets" format="ascii">
4 8 12 16 20 24 28 32 36 
        </DataArray>
        <DataArray type="UInt8" Name="types" format="ascii">
9 9 9 9 9 9 9 9 9 
        </DataArray>
      </Cells>
      <PointData>
        <DataArray type="Float64" Name="u">
          2.19257432e+02 2.13960236e+02 2.13624877e+02 2.08317103e+02 2.43488665e+02 2.37868903e+02 2.36460980e+02 2.30665563e+02 2.43488665e+02 2.37868903e+02 2.36460981e+02 2.30665563e+02 2.19257433e+02 2.13960236e+02 2.13624878e+02 2.08317105e+02 
        </DataArray>
        <DataArray type="Float64" Name="v">
          -4.99597266e-01 -3.12051949e+00 -2.79351477e+00 -1.52214811e+00 5.48262913e-02 -1.45173861e-01 -6.74881895e-01 -7.79569941e-01 -5.48254827e-02 1.45175110e-01 6.74883645e-01 7.79572243e-01 4.99598009e-01 3.12052066e+00 2.79351641e+00 1.52215025e+00 
        </DataArray>
        <DataArray type="Float64" Name="p">
          -7.25047896e+03 -7.50167388e+03 -7.75286879e+03 -8.00406370e+03 -7.25047898e+03 -7.50167390e+03 -7.75286881e+03 -8.00406373e+03 -7.25047900e+03 -7.50167392e+03 -7.75286884e+03 -8.00406376e+03 -7.25047902e+03 -7.50167395e+03 -7.75286887e+03 -8.00406379e+03 
        </DataArray>
      </PointData>
    </Piece>
    <Piece NumberOfPoints="16" NumberOfCells="9">
      <Points>
        <DataArray type="Float64" NumberOfComponents="3" format="ascii">
          2.50000000e+00 5.00000000e+00 0.00000000e+00 
3.33333325e+00 5.00000000e+00 0.00000000e+00 
4.16666651e+00 5.00000000e+00 0.00000000e+00 
5.00000000e+00 5.00000000e+00 0.00000000e+00 
2.50000000e+00 5.33333349e+00 0.00000000e+00 
3.33333325e+00 5.33333349e+00 0.00000000e+00 
4.16666651e+00 5.33333349e+00 0.00000000e+00 
5.00000000e+00 5.33333349e+00 0.00000000e+00 
2.50000000e+00 5.66666651e+00 0.00000000e+00 
3.33333325e+00 5.66666651e+00 0.00000000e+00 
4.16666651e+00 5.66666651e+00 0.00000000e+00 
5.00000000e+00 5.66666651e+00 0.00000000e+00 
2.50000000e+00 6.00000000e+00 0.00000000e+00 
3.33333325e+00 6.00000000e+00 0.00000000e+00 
4.16666651e+00 6.00000000e+00 0.00000000e+00 
5.00000000e+00 6.00000000e+00 0.00000000e+00 

        </DataArray>
      </Points>
      <Cells>
        <DataArray type="Int32" Name="connectivity" format="ascii">
0 1 5 4
4 5 9 8
8 9 13 12
1 2 6 5
5 6 10 9
9 10 14 13
2 3 7 6
6 7 11 10
10 11 15 14

        </DataArray>
        <DataArray type="Int32" Name="offsets" format="ascii">
4 8 12 16 20 24 28 32 36 
        </DataArray>
        <DataArray type="UInt8" Name="types" format="ascii">
9 9 9 9 9 9 9 9 9 
        </DataArray>
      </Cells>
      <PointData>
        <DataArray type="Float64" Name="u">
          2.19257433e+02 2.13960236e+02 2.13624878e+02 2.08317105e+02 1.71312212e+02 1.67831458e+02 1.68014938e+02 1.65902107e+02 9.90275029e+01 1.03320820e+02 1.07547406e+02 1.12517449e+02 0.00000000e+00 4.50578733e+01 5.04344092e+01 6.72409516e+01 
        </DataArray>
        <DataArray type="Float64" Name="v">
          4.99598009e-01 3.12052066e+00 2.79351641e+00 1.52215025e+00 2.75788832e-01 4.70482533e+00 4.81700198e+00 1.75222333e+00 9.65814696e-01 4.76756946e+00 3.18592514e+00 6.13482697e-01 0.00000000e+00 -3.88849678e+00 -9.43196749e-01 2.04288099e+00 
        </DataArray>
        <DataArray type="Float64" Name="p">
          -7.36659797e+03 -7.55857230e+03 -7.75054663e+03 -7.94252096e+03 -7.74337546e+03 -7.72738537e+03 -7.71139528e+03 -7.69540519e+03 -8.12015294e+03 -7.89619843e+03 -7.67224392e+03 -7.44828941e+03 -8.49693043e+03 -8.06501150e+03 -7.63309257e+03 -7.20117364e+03 
        </DataArray>
      </PointData>
    </Piece>
    <Piece NumberOfPoints="16" NumberOfCells="9">
      <Points>
        <DataArray type="Float64" NumberOfComponents="3" format="ascii">
          2.50000000e+00 6.00000000e+00 0.00000000e+00 
3.33333325e+00 6.00000000e+00 0.00000000e+00 
4.16666651e+00 6.00000000e+00 0.00000000e+00 
5.00000000e+00 6.00000000e+00 0.00000000e+00 
2.50000000e+00 6.33333349e+00 0.00000000e+00 
3.33333325e+00 6.33333349e+00 0.00000000e+00 
4.16666651e+00 6.33333349e+00 0.00000000e+00 
5.00000000e+00 6.33333349e+00 0.00000000e+00 
2.50000000e+00 6.66666651e+00 0.00000000e+00 
3.33333325e+00 6.66666651e+00 0.00000000e+00 
4.16666651e+00 6.66666651e+00 0.00000000e+00 
5.00000000e+00 6.66666651e+00 0.00000000e+00 
2.50000000e+00 7.00000000e+00 0.00000000e+00 
3.33333325e+00 7.00000000e+00 0.00000000e+00 
4.16666651e+00 7.00000000e+00 0.00000000e+00 
5.00000000e+00 7.00000000e+00 0.00000000e+00 

        </DataArray>
      </Points>
      <Cells>
        <DataArray type="Int32" Name="connectivity" format="ascii">
0 1 5 4
4 5 9 8
8 9 13 12
1 2 6 5
5 6 10 9
9 10 14 13
2 3 7 6
6 7 11 10
10 11 15 14

        </DataArray>
        <DataArray type="Int32" Name="offsets" format="ascii">
4 8 12 16 20 24 28 32 36 
        </DataArray>
        <DataArray type="UInt8" Name="types" format="ascii">
9 9 9 9 9 9 9 9 9 
        </DataArray>
      </Cells>
      <PointData>
        <DataArray type="Float64" Name="u">
          0.00000000e+00 4.50578733e+01 5.04344092e+01 6.72409516e+01 0.00000000e+00 9.24517999e+00 1.63176294e+01 3.06256670e+01 0.00000000e+00 -2.12062720e+00 5.25838424e-01 7.21046028e+00 0.00000000e+00 -5.56427920e+00 -6.89821275e+00 -7.62536829e+00 
        </DataArray>
        <DataArray type="Float64" Name="v">
          0.00000000e+00 -3.88849678e+00 -9.43196749e-01 2.04288099e+00 0.00000000e+00 -1.39349703e+01 -7.71860542e+00 -4.02500162e-01 0.00000000e+00 -1.62192606e+01 -9.60426436e+00 -3.07983132e+00 0.00000000e+00 -1.42055095e+01 -1.10880594e+01 -5.82107904e+00 
        </DataArray>
        <DataArray type="Float64" Name="p">
          -8.39648448e+03 -8.07478792e+03 -7.75309135e+03 -7.43139478e+03 -8.17781964e+03 -7.96660660e+03 -7.75539356e+03 -7.54418053e+03 -7.95915479e+03 -7.85842528e+03 -7.75769578e+03 -7.65696627e+03 -7.74048994e+03 -7.75024396e+03 -7.75999799e+03 -7.76975201e+03 
        </DataArray>
      </PointData>
    </Piece>
    <Piece NumberOfPoints="16" NumberOfCells="9">
      <Points>
        <DataArray type="Float64" NumberOfComponents="3" format="ascii">
          2.50000000e+00 7.00000000e+00 0.00000000e+00 
3.33333325e+00 7.00000000e+00 0.00000000e+00 
4.16666651e+00 7.00000000e+00 0.00000000e+00 
5.00000000e+00 7.00000000e+00 0.00000000e+00 
2.50000000e+00 7.33333349e+00 0.00000000e+00 
3.33333325e+00 7.33333349e+00 0.00000000e+00 
4.16666651e+00 7.33333349e+00 0.00000000e+00 
5.00000000e+00 7.33333349e+00 0.00000000e+00 
2.50000000e+00 7.66666651e+00 0.00000000e+00 
3.33333325e+00 7.66666651e+00 0.00000000e+00 
4.16666651e+00 7.66666651e+00 0.00000000e+00 
5.00000000e+00 7.66666651e+00 0.00000000e+00 
2.50000000e+00 8.00000000e+00 0.00000000e+00 
3.33333325e+00 8.00000000e+00 0.00000000e+00 
4.16666651e+00 8.00000000e+00 0.00000000e+00 
5.00000000e+00 8.00000000e+00 0.00000000e+00 

        </DataArray>
      </Points>
      <Cells>
        <DataArray type="Int32" Name="connectivity" format="ascii">
0 1 5 4
4 5 9 8
8 9 13 12
1 2 6 5
5 6 10 9
9 10 14 13
2 3 7 6
6 7 11 10
10 11 15 14

        </DataArray>
        <DataArray type="Int32" Name="offsets" format="ascii">
4 8 12 16 20 24 28 32 36 
        </DataArray>
        <DataArray type="UInt8" Name="types" format="ascii">
9 9 9 9 9 9 9 9 9 
        </DataArray>
      </Cells>
      <PointData>
        <DataArray type="Float64" Name="u">
          0.00000000e+00 -5.56427920e+00 -6.89821275e+00 -7.62536829e+00 0.00000000e+00 -6.67514828e+00 -1.07564098e+01 -1.49608668e+01 0.00000000e+00 -6.54465823e+00 -1.17469742e+01 -1.78143025e+01 0.00000000e+00 -5.64378709e+00 -1.06721640e+01 -1.71101192e+01 
        </DataArray>
        <DataArray type="Float64" Name="v">
          0.00000000e+00 -1.42055095e+01 -1.10880594e+01 -5.82107904e+00 0.00000000e+00 -1.10530078e+01 -9.54317163e+00 -6.09502959e+00 0.00000000e+00 -8.28788052e+00 -7.52955942e+00 -5.29217515e+00 0.00000000e+00 -4.84802838e+00 -4.75287630e+00 -3.67467349e+00 
        </DataArray>
        <DataArray type="Float64" Name="p">
          -7.76660338e+03 -7.73929743e+03 -7.71199147e+03 -7.68468552e+03 -7.71207741e+03 -7.69014827e+03 -7.66821912e+03 -7.64628997e+03 -7.65755144e+03 -7.64099910e+03 -7.62444676e+03 -7.60789442e+03 -7.60302547e+03 -7.59184994e+03 -7.58067440e+03 -7.56949887e+03 
        </DataArray>
      </PointData>
    </Piece>
    <Piece NumberOfPoints="16" NumberOfCells="9">
      <Points>
        <DataArray type="Float64" NumberOfComponents="3" format="ascii">
          2.50000000e+00 8.00000000e+00 0.00000000e+00 
3.33333325e+00 8.00000000e+00 0.00000000e+00 
4.16666651e+00 8.00000000e+00 0.00000000e+00 
5.00000000e+00 8.00000000e+00 0.00000000e+00 
2.50000000e+00 8.33333302e+00 0.00000000e+00 
3.33333325e+00 8.33333302e+00 0.00000000e+00 
4.16666651e+00 8.33333302e+00 0.00000000e+00 
5.00000000e+00 8.33333302e+00 0.00000000e+00 
2.50000000e+00 8.66666698e+00 0.00000000e+00 
3.33333325e+00 8.66666698e+00 0.00000000e+00 
4.16666651e+00 8.66666698e+00 0.00000000e+00 
5.00000000e+00 8.66666698e+00 0.00000000e+00 
2.50000000e+00 9.00000000e+00 0.00000000e+00 
3.33333325e+00 9.00000000e+00 0.00000000e+00 
4.16666651e+00 9.00000000e+00 0.00000000e+00 
5.00000000e+00 9.00000000e+00 0.00000000e+00 

        </DataArray>
      </Points>
      <Cells>
        <DataArray type="Int32" Name="connectivity" format="ascii">
0 1 5 4
4 5 9 8
8 9 13 12
1 2 6 5
5 6 10 9
9 10 14 13
2 3 7 6
6 7 11 10
10 11 15 14

        </DataArray>
        <DataArray type="Int32" Name="offsets" format="ascii">
4 8 12 16 20 24 28 32 36 
        </DataArray>
        <DataArray type="UInt8" Name="types" format="ascii">
9 9 9 9 9 9 9 9 9 
        </DataArray>
      </Cells>
      <PointData>
        <DataArray type="Float64" Name="u">
          0.00000000e+00 -5.64378709e+00 -1.06721640e+01 -1.71101192e+01 0.00000000e+00 -4.19131068e+00 -8.04002031e+00 -1.36325419e+01 0.00000000e+00 -2.27877100e+00 -4.31186302e+00 -7.72857467e+00 0.00000000e+00 0.00000000e+00 0.00000000e+00 0.00000000e+00 
        </DataArray>
        <DataArray type="Float64" Name="v">
          0.00000000e+00 -4.84802838e+00 -4.75287630e+00 -3.67467349e+00 0.00000000e+00 -2.15936467e+00 -2.24320177e+00 -1.80734354e+00 0.00000000e+00 -7.01760315e-01 -7.75413448e-01 -6.71057136e-01 0.00000000e+00 0.00000000e+00 0.00000000e+00 0.00000000e+00 
        </DataArray>
        <DataArray type="Float64" Name="p">
          -7.61402836e+03 -7.59789058e+03 -7.58175281e+03 -7.56561504e+03 -7.62174978e+03 -7.60653267e+03 -7.59131556e+03 -7.57609846e+03 -7.62947120e+03 -7.61517476e+03 -7.60087832e+03 -7.58658188e+03 -7.63719262e+03 -7.62381685e+03 -7.61044107e+03 -7.59706530e+03 
        </DataArray>
      </PointData>
    </Piece>
    <Piece NumberOfPoints="16" NumberOfCells="9">
      <Points>
        <DataArray type="Float64" NumberOfComponents="3" format="ascii">
          5.00000000e+00 0.00000000e+00 0.00000000e+00 
5.83333349e+00 0.00000000e+00 0.00000000e+00 
6.66666651e+00 0.00000000e+00 0.00000000e+00 
7.50000000e+00 0.00000000e+00 0.00000000e+00 
5.00000000e+00 3.33333343e-01 0.00000000e+00 
5.83333349e+00 3.33333343e-01 0.00000000e+00 
6.66666651e+00 3.33333343e-01 0.00000000e+00 
7.50000000e+00 3.33333343e-01 0.00000000e+00 
5.00000000e+00 6.66666687e-01 0.00000000e+00 
5.83333349e+00 6.66666687e-01 0.00000000e+00 
6.66666651e+00 6.66666687e-01 0.00000000e+00 
7.50000000e+00 6.66666687e-01 0.00000000e+00 
5.00000000e+00 1.00000000e+00 0.00000000e+00 
5.83333349e+00 1.00000000e+00 0.00000000e+00 
6.66666651e+00 1.00000000e+00 0.00000000e+00 
7.50000000e+00 1.00000000e+00 0.00000000e+00 

        </DataArray>
      </Points>
      <Cells>
        <DataArray type="Int32" Name="connectivity" format="ascii">
0 1 5 4
4 5 9 8
8 9 13 12
1 2 6 5
5 6 10 9
9 10 14 13
2 3 7 6
6 7 11 10
10 11 15 14

        </DataArray>
        <DataArray type="Int32" Name="offsets" format="ascii">
4 8 12 16 20 24 28 32 36 
        </DataArray>
        <DataArray type="UInt8" Name="types" format="ascii">
9 9 9 9 9 9 9 9 9 
        </DataArray>
      </Cells>
      <PointData>
        <DataArray type="Float64" Name="u">