<?xml version="1.0"?>
<VTKFile type="UnstructuredGrid" version="0.1" byte_order="LittleEndian">
  <UnstructuredGrid>
    <Piece NumberOfPoints="16" NumberOfCells="9">
      <Points>
        <DataArray type="Float64" NumberOfComponents="3" format="ascii">
          0.00000000e+00 3.00000000e+00 0.00000000e+00 
8.33333313e-01 3.00000000e+00 0.00000000e+00 
1.66666663e+00 3.00000000e+00 0.00000000e+00 
2.50000000e+00 3.00000000e+00 0.00000000e+00 
0.00000000e+00 3.33333325e+00 0.00000000e+00 
8.33333313e-01 3.33333325e+00 0.00000000e+00 
1.66666663e+00 3.33333325e+00 0.00000000e+00 
2.50000000e+00 3.33333325e+00 0.00000000e+00 
0.00000000e+00 3.66666675e+00 0.00000000e+00 
8.33333313e-01 3.66666675e+00 0.00000000e+00 
1.66666663e+00 3.66666675e+00 0.00000000e+00 
2.50000000e+00 3.66666675e+00 0.00000000e+00 
0.00000000e+00 4.00000000e+00 0.00000000e+00 
8.33333313e-01 4.00000000e+00 0.00000000e+00 
1.66666663e+00 4.00000000e+00 0.00000000e+00 
2.50000000e+00 4.00000000e+00 0.00000000e+00 

        </DataArray>
      </Points>
      <Cells>
        <DataArray type="Int32" Name="connectivity" format="ascii">
0 1 5 4
4 5 9 8
8 9 13 12
1 2 6 5
5 6 10 9
9 10 14 13
2 3 7 6
6 7 11 10
10 11 15 14

        </DataArray>
        <DataArray type="Int32" Name="offsets" format="ascii">
4 8 12 16 20 24 28 32 36 
        </DataArray>
        <DataArray type="UInt8" Name="types" format="ascii">
9 9 9 9 9 9 9 9 9 
        </DataArray>
      </Cells>
      <PointData>
        <DataArray type="Float64" Name="u">
          0.00000000e+00 0.00000000e+00 0.00000000e+00 0.00000000e+00 9.77777778e+01 9.83200264e+01 9.81420856e+01 9.90275020e+01 1.71111111e+02 1.71053565e+02 1.71470367e+02 1.71312211e+02 2.20000000e+02 2.19367026e+02 2.20099549e+02 2.19257432e+02 
        </DataArray>
        <DataArray type="Float64" Name="v">
          0.00000000e+00 0.00000000e+00 0.00000000e+00 0.00000000e+00 0.00000000e+00 -2.29580520e-01 2.24604166e-02 -9.65814405e-01 0.00000000e+00 -1.24241695e-01 -1.68459794e-01 -2.75788501e-01 0.00000000e+00 -2.15952888e-01 -9.88353091e-02 -4.99597492e-01 
        </DataArray>
        <DataArray type="Float64" Name="p">
          -4.74254910e+03 -5.77639357e+03 -6.81023804e+03 -7.84408250e+03 -4.74448350e+03 -5.77438286e+03 -6.80428221e+03 -7.83418156e+03 -4.74641790e+03 -5.77237214e+03 -6.79832638e+03 -7.82428063e+03 -4.74835230e+03 -5.77036143e+03 -6.79237056e+03 -7.81437969e+03 
        </DataArray>
      </PointData>
    </Piece>
    <Piece NumberOfPoints="16" NumberOfCells="9">
      <Points>
        <DataArray type="Float64" NumberOfComponents="3" format="ascii">
          0.00000000e+00 4.00000000e+00 0.00000000e+00 
8.33333313e-01 4.00000000e+00 0.00000000e+00 
1.66666663e+00 4.00000000e+00 0.00000000e+00 
2.50000000e+00 4.00000000e+00 0.00000000e+00 
0.00000000e+00 4.33333349e+00 0.00000000e+00 
8.33333313e-01 4.33333349e+00 0.00000000e+00 
1.66666663e+00 4.33333349e+00 0.00000000e+00 
2.50000000e+00 4.33333349e+00 0.00000000e+00 
0.00000000e+00 4.66666651e+00 0.00000000e+00 
8.33333313e-01 4.66666651e+00 0.00000000e+00 
1.66666663e+00 4.66666651e+00 0.00000000e+00 
2.50000000e+00 4.66666651e+00 0.00000000e+00 
0.00000000e+00 5.00000000e+00 0.00000000e+00 
8.33333313e-01 5.00000000e+00 0.00000000e+00 
1.66666663e+00 5.00000000e+00 0.00000000e+00 
2.50000000e+00 5.00000000e+00 0.00000000e+00 

        </DataArray>
      </Points>
      <Cells>
        <DataArray type="Int32" Name="connectivity" format="ascii">
0 1 5 4
4 5 9 8
8 9 13 12
1 2 6 5
5 6 10 9
9 10 14 13
2 3 7 6
6 7 11 10
10 11 15 14

        </DataArray>
        <DataArray type="Int32" Name="offsets" format="ascii">
4 8 12 16 20 24 28 32 36 
        </DataArray>
        <DataArray type="UInt8" Name="types" format="ascii">
9 9 9 9 9 9 9 9 9 
        </DataArray>
      </Cells>
      <PointData>
        <DataArray type="Float64" Name="u">
          2.20000000e+02 2.19367026e+02 2.20099549e+02 2.19257432e+02 2.44444444e+02 2.43703850e+02 2.44332390e+02 2.43488665e+02 2.44444444e+02 2.43703850e+02 2.44332390e+02 2.43488665e+02 2.20000000e+02 2.19367026e+02 2.20099549e+02 2.19257432e+02 
        </DataArray>
        <DataArray type="Float64" Name="v">
          0.00000000e+00 -2.15952888e-01 -9.88353091e-02 -4.99597492e-01 0.00000000e+00 6.83869477e-03 -5.97623972e-02 5.48260454e-02 0.00000000e+00 -6.83857276e-03 5.97626207e-02 -5.48257287e-02 0.00000000e+00 2.15952991e-01 9.88355017e-02 4.99597783e-01 
        </DataArray>
        <DataArray type="Float64" Name="p">
          -4.73395848e+03 -5.76243351e+03 -6.79090853e+03 -7.81938356e+03 -4.73395849e+03 -5.76243351e+03 -6.79090854e+03 -7.81938356e+03 -4.73395849e+03 -5.76243352e+03 -6.79090854e+03 -7.81938357e+03 -4.73395850e+03 -5.76243352e+03 -6.79090855e+03 -7.81938357e+03 
        </DataArray>
      </PointData>
    </Piece>
    <Piece NumberOfPoints="16" NumberOfCells="9">
      <Points>
        <DataArray type="Float64" NumberOfComponents="3" format="ascii">
          0.00000000e+00 5.00000000e+00 0.00000000e+00 
8.33333313e-01 5.00000000e+00 0.00000000e+00 
1.66666663e+00 5.00000000e+00 0.00000000e+00 
2.50000000e+00 5.00000000e+00 0.00000000e+00 
0.00000000e+00 5.33333349e+00 0.00000000e+00 
8.33333313e-01 5.33333349e+00 0.00000000e+00 
1.66666663e+00 5.33333349e+00 0.00000000e+00 
2.50000000e+00 5.33333349e+00 0.00000000e+00 
0.00000000e+00 5.66666651e+00 0.00000000e+00 
8.33333313e-01 5.66666651e+00 0.00000000e+00 
1.66666663e+00 5.66666651e+00 0.00000000e+00 
2.50000000e+00 5.66666651e+00 0.00000000e+00 
0.00000000e+00 6.00000000e+00 0.00000000e+00 
8.33333313e-01 6.00000000e+00 0.00000000e+00 
1.66666663e+00 6.00000000e+00 0.00000000e+00 
2.50000000e+00 6.00000000e+00 0.00000000e+00 

        </DataArray>
      </Points>
      <Cells>
        <DataArray type="Int32" Name="connectivity" format="ascii">
0 1 5 4
4 5 9 8
8 9 13 12
1 2 6 5
5 6 10 9
9 10 14 13
2 3 7 6
6 7 11 10
10 11 15 14

        </DataArray>
        <DataArray type="Int32" Name="offsets" format="ascii">
4 8 12 16 20 24 28 32 36 
        </DataArray>
        <DataArray type="UInt8" Name="types" format="ascii">
9 9 9 9 9 9 9 9 9 
        </DataArray>
      </Cells>
      <PointData>
        <DataArray type="Float64" Name="u">
          2.20000000e+02 2.19367026e+02 2.20099549e+02 2.19257432e+02 1.71111111e+02 1.71053565e+02 1.71470367e+02 1.71312212e+02 9.77777778e+01 9.83200266e+01 9.81420857e+01 9.90275025e+01 0.00000000e+00 0.00000000e+00 0.00000000e+00 0.00000000e+00 
        </DataArray>
        <DataArray type="Float64" Name="v">
          0.00000000e+00 2.15952991e-01 9.88355017e-02 4.99597783e-01 0.00000000e+00 1.24241734e-01 1.68459897e-01 2.75788687e-01 0.00000000e+00 2.29580572e-01 -2.24603208e-02 9.65814569e-01 0.00000000e+00 0.00000000e+00 0.00000000e+00 0.00000000e+00 
        </DataArray>
        <DataArray type="Float64" Name="p">
          -4.74835232e+03 -5.77036145e+03 -6.79237058e+03 -7.81437970e+03 -4.74641792e+03 -5.77237216e+03 -6.79832640e+03 -7.82428065e+03 -4.74448352e+03 -5.77438288e+03 -6.80428223e+03 -7.83418159e+03 -4.74254913e+03 -5.77639359e+03 -6.81023806e+03 -7.84408253e+03 
        </DataArray>
      </PointData>
    </Piece>
    <Piece NumberOfPoints="16" NumberOfCells="9">
      <Points>
        <DataArray type="Float64" NumberOfComponents="3" format="ascii">
          2.50000000e+00 0.00000000e+00 0.00000000e+00 
3.33333325e+00 0.00000000e+00 0.00000000e+00 
4.16666651e+00 0.00000000e+00 0.00000000e+00 
5.00000000e+00 0.00000000e+00 0.00000000e+00 
2.50000000e+00 3.33333343e-01 0.00000000e+00 
3.33333325e+00 3.33333343e-01 0.00000000e+00 
4.16666651e+00 3.33333343e-01 0.00000000e+00 
5.00000000e+00 3.33333343e-01 0.00000000e+00 
2.50000000e+00 6.66666687e-01 0.00000000e+00 
3.33333325e+00 6.66666687e-01 0.00000000e+00 
4.16666651e+00 6.66666687e-01 0.00000000e+00 
5.00000000e+00 6.66666687e-01 0.00000000e+00 
2.50000000e+00 1.00000000e+00 0.00000000e+00 
3.33333325e+00 1.00000000e+00 0.00000000e+00 
4.16666651e+00 1.00000000e+00 0.00000000e+00 
5.00000000e+00 1.00000000e+00 0.00000000e+00 

        </DataArray>
      </Points>
      <Cells>
        <DataArray type="Int32" Name="connectivity" format="ascii">
0 1 5 4
4 5 9 8
8 9 13 12
1 2 6 5
5 6 10 9
9 10 14 13
2 3 7 6
6 7 11 10
10 11 15 14

        </DataArray>
        <DataArray type="Int32" Name="offsets" format="ascii">
4 8 12 16 20 24 28 32 36 
        </DataArray>
        <DataArray type="UInt8" Name="types" format="ascii">
9 9 9 9 9 9 9 9 9 
        </DataArray>
      </Cells>
      <PointData>
        <DataArray type="Float64" Name="u">
          0.00000000e+00 0.00000000e+00 0.00000000e+00 0.00000000e+00 0.00000000e+00 -2.27877096e+00 -4.31186295e+00 -7.72857454e+00 0.00000000e+00 -4.19131061e+00 -8.04002020e+00 -1.36325417e+01 0.00000000e+00 -5.64378701e+00 -1.06721639e+01 -1.71101191e+01 
        </DataArray>
        <DataArray type="Float64" Name="v">
          0.00000000e+00 0.00000000e+00 0.00000000e+00 0.00000000e+00 0.00000000e+00 7.01760301e-01 7.75413435e-01 6.71057117e-01 0.00000000e+00 2.15936463e+00 2.24320174e+00 1.80734351e+00 0.00000000e+00 4.84802831e+00 4.75287623e+00 3.67467344e+00 
        </DataArray>
        <DataArray type="Float64" Name="p">
          -7.63719252e+03 -7.62381675e+03 -7.61044098e+03 -7.59706521e+03 -7.62947110e+03 -7.61517466e+03 -7.60087822e+03 -7.58658178e+03 -7.62174968e+03 -7.60653257e+03 -7.59131547e+03 -7.57609836e+03 -7.61402826e+03 -7.59789049e+03 -7.58175271e+03 -7.56561494e+03 
        </DataArray>
      </PointData>
    </Piece>
    <Piece NumberOfPoints="16" NumberOfCells="9">
      <Points>
        <DataArray type="Float64" NumberOfComponents="3" format="ascii">
          2.50000000e+00 1.00000000e+00 0.00000000e+00 
3.33333325e+00 1.00000000e+00 0.00000000e+00 
4.16666651e+00 1.00000000e+00 0.00000000e+00 
5.00000000e+00 1.00000000e+00 0.00000000e+00 
2.50000000e+00 1.33333337e+00 0.00000000e+00 
3.33333325e+00 1.33333337e+00 0.00000000e+00 
4.16666651e+00 1.33333337e+00 0.00000000e+00 
5.00000000e+00 1.33333337e+00 0.00000000e+00 
2.50000000e+00 1.66666663e+00 0.00000000e+00 
3.33333325e+00 1.66666663e+00 0.00000000e+00 
4.16666651e+00 1.66666663e+00 0.00000000e+00 
5.00000000e+00 1.66666663e+00 0.00000000e+00 
2.50000000e+00 2.00000000e+00 0.00000000e+00 
3.33333325e+00 2.00000000e+00 0.00000000e+00 
4.16666651e+00 2.00000000e+00 0.00000000e+00 
5.00000000e+00 2.00000000e+00 0.00000000e+00 

        </DataArray>
      </Points>
      <Cells>
        <DataArray type="Int32" Name="connectivity" format="ascii">
0 1 5 4
4 5 9 8
8 9 13 12
1 2 6 5
5 6 10 9
9 10 14 13
2 3 7 6
6 7 11 10
10 11 15 14

        </DataArray>
        <DataArray type="Int32" Name="offsets" format="ascii">
4 8 12 16 20 24 28 32 36 
        </DataArray>
        <DataArray type="UInt8" Name="types" format="ascii">
9 9 9 9 9 9 9 9 9 
        </DataArray>
      </Cells>
      <PointData>
        <DataArray type="Float64" Name="u">
          0.00000000e+00 -5.64378701e+00 -1.06721639e+01 -1.71101191e+01 0.00000000e+00 -6.54465818e+00 -1.17469742e+01 -1.78143025e+01 0.00000000e+00 -6.67514827e+00 -1.07564098e+01 -1.49608670e+01 0.00000000e+00 -5.56427924e+00 -6.89821300e+00 -7.62536881e+00 
        </DataArray>
        <DataArray type="Float64" Name="v">
          0.00000000e+00 4.84802831e+00 4.75287623e+00 3.67467344e+00 0.00000000e+00 8.28788043e+00 7.52955933e+00 5.29217513e+00 0.00000000e+00 1.10530077e+01 9.54317156e+00 6.09502963e+00 0.00000000e+00 1.42055094e+01 1.10880594e+01 5.82107921e+00 
        </DataArray>
        <DataArray type="Float64" Name="p">
          -7.60302538e+03 -7.59184984e+03 -7.58067431e+03 -7.56949877e+03 -7.65755135e+03 -7.64099901e+03 -7.62444666e+03 -7.60789432e+03 -7.71207732e+03 -7.69014817e+03 -7.66821902e+03 -7.64628987e+03 -7.76660329e+03 -7.73929733e+03 -7.71199137e+03 -7.68468542e+03 
        </DataArray>
      </PointData>
    </Piece>
    <Piece NumberOfPoints="16" NumberOfCells="9">
      <Points>
        <DataArray type="Float64" NumberOfComponents="3" format="ascii">
          2.50000000e+00 2.00000000e+00 0.00000000e+00 
3.33333325e+00 2.00000000e+00 0.00000000e+00 
4.16666651e+00 2.00000000e+00 0.00000000e+00 
5.00000000e+00 2.00000000e+00 0.00000000e+00 
2.50000000e+00 2.33333325e+00 0.00000000e+00 
3.33333325e+00 2.33333325e+00 0.00000000e+00 
4.16666651e+00 2.33333325e+00 0.00000000e+00 
5.00000000e+00 2.33333325e+00 0.00000000e+00 
2.50000000e+00 2.66666675e+00 0.00000000e+00 
3.33333325e+00 2.66666675e+00 0.00000000e+00 
4.16666651e+00 2.66666675e+00 0.00000000e+00 
5.00000000e+00 2.66666675e+00 0.00000000e+00 
2.50000000e+00 3.00000000e+00 0.00000000e+00 
3.33333325e+00 3.00000000e+00 0.00000000e+00 
4.16666651e+00 3.00000000e+00 0.00000000e+00 
5.00000000e+00 3.00000000e+00 0.00000000e+00 

        </DataArray>
      </Points>
      <Cells>
        <DataArray type="Int32" Name="connectivity" format="ascii">
0 1 5 4
4 5 9 8
8 9 13 12
1 2 6 5
5 6 10 9
9 10 14 13
2 3 7 6
6 7 11 10
10 11 15 14

        </DataArray>
        <DataArray type="Int32" Name="offsets" format="ascii">
4 8 12 16 20 24 28 32 36 
        </DataArray>
        <DataArray type="UInt8" Name="types" format="ascii">
9 9 9 9 9 9 9 9 9 
        </DataArray>
      </Cells>
      <PointData>
        <DataArray type="Float64" Name="u">
          0.00000000e+00 -5.56427924e+00 -6.89821300e+00 -7.62536881e+00 0.00000000e+00 -2.12062733e+00 5.25837979e-01 7.21045934e+00 0.00000000e+00 9.24517965e+00 1.63176287e+01 3.06256656e+01 0.00000000e+00 4.50578725e+01 5.04344078e+01 6.72409497e+01 
        </DataArray>
        <DataArray type="Float64" Name="v">
          0.00000000e+00 1.42055094e+01 1.10880594e+01 5.82107921e+00 0.00000000e+00 1.62192606e+01 9.60426450e+00 3.07983170e+00 0.00000000e+00 1.39349704e+01 7.71860573e+00 4.02500702e-01 0.00000000e+00 3.88849719e+00 9.43197329e-01 -2.04288025e+00 
        </DataArray>
        <DataArray type="Float64" Name="p">
          -7.74048984e+03 -7.75024387e+03 -7.75999789e+03 -7.76975191e+03 -7.95915469e+03 -7.85842518e+03 -7.75769568e+03 -7.65696617e+03 -8.17781954e+03 -7.96660650e+03 -7.75539347e+03 -7.54418043e+03 -8.39648438e+03 -8.07478782e+03 -7.75309126e+03 -7.43139469e+03 
        </DataArray>
      </PointData>
    </Piece>
    <Piece NumberOfPoints="16" NumberOfCells="9">
      <Points>
        <DataArray type="Float64" NumberOfComponents="3" format="ascii">
          2.50000000e+00 3.00000000e+00 0.00000000e+00 
3.33333325e+00 3.00000000e+00 0.00000000e+00 
4.16666651e+00 3.00000000e+00 0.00000000e+00 
5.00000000e+00 3.00000000e+00 0.00000000e+00 
2.50000000e+00 3.33333325e+00 0.00000000e+00 
3.33333325e+00 3.33333325e+00 0.00000000e+00 
4.16666651e+00 3.33333325e+00 0.00000000e+00 
5.00000000e+00 3.33333325e+00 0.00000000e+00 
2.50000000e+00 3.66666675e+00 0.00000000e+00 
3.33333325e+00 3.66666675e+00 0.00000000e+00 
4.16666651e+00 3.66666675e+00 0.00000000e+00 
5.00000000e+00 3.66666675e+00 0.00000000e+00 
2.50000000e+00 4.00000000e+00 0.00000000e+00 
3.33333325e+00 4.00000000e+00 0.00000000e+00 
4.16666651e+00 4.00000000e+00 0.00000000e+00 
5.00000000e+00 4.00000000e+00 0.00000000e+00 

        </DataArray>
      </Points>
      <Cells>
        <DataArray type="Int32" Name="connectivity" format="ascii">
0 1 5 4
4 5 9 8
8 9 13 12
1 2 6 5
5 6 10 9
9 10 14 13
2 3 7 6
6 7 11 10
10 11 15 14

        </DataArray>
        <DataArray type="Int32" Name="offsets" format="ascii">
4 8 12 16 20 24 28 32 36 
        </DataArray>
        <DataArray type="UInt8" Name="types" format="ascii">
9 9 9 9 9 9 9 9 9 
        </DataArray>
      </Cells>
      <PointData>
        <DataArray type="Float64" Name="u">
          0.00000000e+00 4.50578725e+01 5.04344078e+01 6.72409497e+01 9.90275020e+01 1.03320819e+02 1.07547404e+02 1.12517446e+02 1.71312211e+02 1.67831457e+02 1.68014937e+02 1.65902106e+02 2.19257432e+02 2.13960236e+02 2.13624877e+02 2.08317103e+02 
        </DataArray>
        <DataArray type="Float64" Name="v">
          0.00000000e+00 3.88849719e+00 9.43197329e-01 -2.04288025e+00 -9.65814405e-01 -4.76756879e+00 -3.18592422e+00 -6.13481633e-01 -2.75788501e-01 -4.70482470e+00 -4.81700108e+00 -1.75222218e+00 -4.99597492e-01 -3.12051985e+00 -2.79351527e+00 -1.52214876e+00 
        </DataArray>
        <DataArray type="Float64" Name="p">
          -8.49693032e+03 -8.06501140e+03 -7.63309247e+03 -7.20117354e+03 -8.12015286e+03 -7.89619835e+03 -7.67224384e+03 -7.44828933e+03 -7.74337539e+03 -7.72738530e+03 -7.71139520e+03 -7.69540511e+03 -7.36659792e+03 -7.55857225e+03 -7.75054657e+03 -7.94252089e+03 
        </DataArray>
      </PointData>
    </Piece>
    <Piece NumberOfPoints="16" NumberOfCells="9">
      <Points>
        <DataArray type="Float64" NumberOfComponents="3" format="ascii">
          2.50000000e+00 4.00000000e+00 0.00000000e+00 
3.33333325e+00 4.00000000e+00 0.00000000e+00 
4.16666651e+00 4.00000000e+00 0.00000000e+00 
5.00000000e+00 4.00000000e+00 0.00000000e+00 
2.50000000e+00 4.33333349e+00 0.00000000e+00 
3.33333325e+00 4.33333349e+00 0.00000000e+00 
4.16666651e+00 4.33333349e+00 0.00000000e+00 
5.00000000e+00 4.33333349e+00 0.00000000e+00 
2.50000000e+00 4.66666651e+00 0.00000000e+00 
3.33333325e+00 4.66666651e+00 0.00000000e+00 
4.16666651e+00 4.66666651e+00 0.00000000e+00 
5.00000000e+00 4.66666651e+00 0.00000000e+00 
2.50000000e+00 5.00000000e+00 0.00000000e+00 
3.33333325e+00 5.00000000e+00 0.00000000e+00 
4.16666651e+00 5.00000000e+00 0.00000000e+00 
5.00000000e+00 5.00000000e+00 0.00000000e+00 

        </DataArray>
      </Points>
      <Cells>
        <DataArray type="Int32" Name="connectivity" format="ascii">
0 1 5 4
4 5 9 8
8 9 13 12
1 2 6 5
5 6 10 9
9 10 14 13
2 3 7 6
6 7 11 10
10 11 15 14

        </DataArray>
        <DataArray type="Int32" Name="offsets" format="ascii">
4 8 12 16 20 24 28 32 36 
        </DataArray>
        <DataArray type="UInt8" Name="types" format="ascii">
9 9 9 9 9 9 9 9 9 
        </DataArray>
      </Cells>
      <PointData>
        <DataArray type="Float64" Name="u">
          2.19257432e+02 2.13960236e+02 2.13624877e+02 2.08317103e+02 2.43488665e+02 2.37868903e+02 2.36460980e+02 2.30665563e+02 2.43488665e+02 2.37868903e+02 2.36460980e+02 2.30665563e+02 2.19257432e+02 2.13960236e+02 2.13624878e+02 2.08317104e+02 
        </DataArray>
        <DataArray type="Float64" Name="v">
          -4.99597492e-01 -3.12051985e+00 -2.79351527e+00 -1.52214876e+00 5.48260454e-02 -1.45174241e-01 -6.74882428e-01 -7.79570641e-01 -5.48257287e-02 1.45174730e-01 6.74883112e-01 7.79571543e-01 4.99597783e-01 3.12052030e+00 2.79351591e+00 1.52214960e+00 
        </DataArray>
        <DataArray type="Float64" Name="p">
          -7.25047898e+03 -7.50167390e+03 -7.75286881e+03 -8.00406373e+03 -7.25047899e+03 -7.50167391e+03 -7.75286882e+03 -8.00406374e+03 -7.25047900e+03 -7.50167392e+03 -7.75286883e+03 -8.00406375e+03 -7.25047901e+03 -7.50167392e+03 -7.75286884e+03 -8.00406376e+03 
        </DataArray>
      </PointData>
    </Piece>
    <Piece NumberOfPoints="16" NumberOfCells="9">
      <Points>
        <DataArray type="Float64" NumberOfComponents="3" format="ascii">
          2.50000000e+00 5.00000000e+00 0.00000000e+00 
3.33333325e+00 5.00000000e+00 0.00000000e+00 
4.16666651e+00 5.00000000e+00 0.00000000e+00 
5.00000000e+00 5.00000000e+00 0.00000000e+00 
2.50000000e+00 5.33333349e+00 0.00000000e+00 
3.33333325e+00 5.33333349e+00 0.00000000e+00 
4.16666651e+00 5.33333349e+00 0.00000000e+00 
5.00000000e+00 5.33333349e+00 0.00000000e+00 
2.50000000e+00 5.66666651e+00 0.00000000e+00 
3.33333325e+00 5.66666651e+00 0.00000000e+00 
4.16666651e+00 5.66666651e+00 0.00000000e+00 
5.00000000e+00 5.66666651e+00 0.00000000e+00 
2.50000000e+00 6.00000000e+00 0.00000000e+00 
3.33333325e+00 6.00000000e+00 0.00000000e+00 
4.16666651e+00 6.00000000e+00 0.00000000e+00 
5.00000000e+00 6.00000000e+00 0.00000000e+00 

        </DataArray>
      </Points>
      <Cells>
        <DataArray type="Int32" Name="connectivity" format="ascii">
0 1 5 4
4 5 9 8
8 9 13 12
1 2 6 5
5 6 10 9
9 10 14 13
2 3 7 6
6 7 11 10
10 11 15 14

        </DataArray>
        <DataArray type="Int32" Name="offsets" format="ascii">
4 8 12 16 20 24 28 32 36 
        </DataArray>
        <DataArray type="UInt8" Name="types" format="ascii">
9 9 9 9 9 9 9 9 9 
        </DataArray>
      </Cells>
      <PointData>
        <DataArray type="Float64" Name="u">
          2.19257432e+02 2.13960236e+02 2.13624878e+02 2.08317104e+02 1.71312212e+02 1.67831457e+02 1.68014938e+02 1.65902107e+02 9.90275025e+01 1.03320820e+02 1.07547405e+02 1.12517448e+02 0.00000000e+00 4.50578729e+01 5.04344086e+01 6.72409508e+01 
        </DataArray>
        <DataArray type="Float64" Name="v">
          4.99597783e-01 3.12052030e+00 2.79351591e+00 1.52214960e+00 2.75788687e-01 4.70482506e+00 4.81700159e+00 1.75222283e+00 9.65814569e-01 4.76756917e+00 3.18592474e+00 6.13482232e-01 0.00000000e+00 -3.88849696e+00 -9.43197002e-01 2.04288067e+00 
        </DataArray>
        <DataArray type="Float64" Name="p">
          -7.36659795e+03 -7.55857228e+03 -7.75054660e+03 -7.94252093e+03 -7.74337543e+03 -7.72738534e+03 -7.71139524e+03 -7.69540515e+03 -8.12015291e+03 -7.89619840e+03 -7.67224389e+03 -7.44828938e+03 -8.49693038e+03 -8.06501145e+03 -7.63309253e+03 -7.20117360e+03 
        </DataArray>
      </PointData>
    </Piece>
    <Piece NumberOfPoints="16" NumberOfCells="9">
      <Points>
        <DataArray type="Float64" NumberOfComponents="3" format="ascii">
          2.50000000e+00 6.00000000e+00 0.00000000e+00 
3.33333325e+00 6.00000000e+00 0.00000000e+00 
4.16666651e+00 6.00000000e+00 0.00000000e+00 
5.00000000e+00 6.00000000e+00 0.00000000e+00 
2.50000000e+00 6.33333349e+00 0.00000000e+00 
3.33333325e+00 6.33333349e+00 0.00000000e+00 
4.16666651e+00 6.33333349e+00 0.00000000e+00 
5.00000000e+00 6.33333349e+00 0.00000000e+00 
2.50000000e+00 6.66666651e+00 0.00000000e+00 
3.33333325e+00 6.66666651e+00 0.00000000e+00 
4.16666651e+00 6.66666651e+00 0.00000000e+00 
5.00000000e+00 6.66666651e+00 0.00000000e+00 
2.50000000e+00 7.00000000e+00 0.00000000e+00 
3.33333325e+00 7.00000000e+00 0.00000000e+00 
4.16666651e+00 7.00000000e+00 0.00000000e+00 
5.00000000e+00 7.00000000e+00 0.00000000e+00 

        </DataArray>
      </Points>
      <Cells>
        <DataArray type="Int32" Name="connectivity" format="ascii">
0 1 5 4
4 5 9 8
8 9 13 12
1 2 6 5
5 6 10 9
9 10 14 13
2 3 7 6
6 7 11 10
10 11 15 14

        </DataArray>
        <DataArray type="Int32" Name="offsets" format="ascii">
4 8 12 16 20 24 28 32 36 
        </DataArray>
        <DataArray type="UInt8" Name="types" format="ascii">
9 9 9 9 9 9 9 9 9 
        </DataArray>
      </Cells>
      <PointData>
        <DataArray type="Float64" Name="u">
          0.00000000e+00 4.50578729e+01 5.04344086e+01 6.72409508e+01 0.00000000e+00 9.24517984e+00 1.63176291e+01 3.06256664e+01 0.00000000e+00 -2.12062725e+00 5.25838229e-01 7.21045987e+00 0.00000000e+00 -5.56427922e+00 -6.89821286e+00 -7.62536852e+00 
        </DataArray>
        <DataArray type="Float64" Name="v">
          0.00000000e+00 -3.88849696e+00 -9.43197002e-01 2.04288067e+00 0.00000000e+00 -1.39349703e+01 -7.71860556e+00 -4.02500398e-01 0.00000000e+00 -1.62192606e+01 -9.60426442e+00 -3.07983149e+00 0.00000000e+00 -1.42055095e+01 -1.10880594e+01 -5.82107911e+00 
        </DataArray>
        <DataArray type="Float64" Name="p">
          -8.39648444e+03 -8.07478787e+03 -7.75309131e+03 -7.43139474e+03 -8.17781959e+03 -7.96660656e+03 -7.75539352e+03 -7.54418048e+03 -7.95915475e+03 -7.85842524e+03 -7.75769573e+03 -7.65696623e+03 -7.74048990e+03 -7.75024392e+03 -7.75999795e+03 -7.76975197e+03 
        </DataArray>
      </PointData>
    </Piece>
    <Piece NumberOfPoints="16" NumberOfCells="9">
      <Points>
        <DataArray type="Float64" NumberOfComponents="3" format="ascii">
          2.50000000e+00 7.00000000e+00 0.00000000e+00 
3.33333325e+00 7.00000000e+00 0.00000000e+00 
4.16666651e+00 7.00000000e+00 0.00000000e+00 
5.00000000e+00 7.00000000e+00 0.00000000e+00 
2.50000000e+00 7.33333349e+00 0.00000000e+00 
3.33333325e+00 7.33333349e+00 0.00000000e+00 
4.16666651e+00 7.33333349e+00 0.00000000e+00 
5.00000000e+00 7.33333349e+00 0.00000000e+00 
2.50000000e+00 7.66666651e+00 0.00000000e+00 
3.33333325e+00 7.66666651e+00 0.00000000e+00 
4.16666651e+00 7.66666651e+00 0.00000000e+00 
5.00000000e+00 7.66666651e+00 0.00000000e+00 
2.50000000e+00 8.00000000e+00 0.00000000e+00 
3.33333325e+00 8.00000000e+00 0.00000000e+00 
4.16666651e+00 8.00000000e+00 0.00000000e+00 
5.00000000e+00 8.00000000e+00 0.00000000e+00 

        </DataArray>
      </Points>
      <Cells>
        <DataArray type="Int32" Name="connectivity" format="ascii">
0 1 5 4
4 5 9 8
8 9 13 12
1 2 6 5
5 6 10 9
9 10 14 13
2 3 7 6
6 7 11 10
10 11 15 14

        </DataArray>
        <DataArray type="Int32" Name="offsets" format="ascii">
4 8 12 16 20 24 28 32 36 
        </DataArray>
        <DataArray type="UInt8" Name="types" format="ascii">
9 9 9 9 9 9 9 9 9 
        </DataArray>
      </Cells>
      <PointData>
        <DataArray type="Float64" Name="u">
          0.00000000e+00 -5.56427922e+00 -6.89821286e+00 -7.62536852e+00 0.00000000e+00 -6.67514828e+00 -1.07564098e+01 -1.49608669e+01 0.00000000e+00 -6.54465821e+00 -1.17469742e+01 -1.78143025e+01 0.00000000e+00 -5.64378705e+00 -1.06721640e+01 -1.71101192e+01 
        </DataArray>
        <DataArray type="Float64" Name="v">
          0.00000000e+00 -1.42055095e+01 -1.10880594e+01 -5.82107911e+00 0.00000000e+00 -1.10530078e+01 -9.54317160e+00 -6.09502961e+00 0.00000000e+00 -8.28788048e+00 -7.52955938e+00 -5.29217514e+00 0.00000000e+00 -4.84802835e+00 -4.75287626e+00 -3.67467347e+00 
        </DataArray>
        <DataArray type="Float64" Name="p">
          -7.76660334e+03 -7.73929739e+03 -7.71199143e+03 -7.68468547e+03 -7.71207737e+03 -7.69014822e+03 -7.66821907e+03 -7.64628992e+03 -7.65755140e+03 -7.64099906e+03 -7.62444672e+03 -7.60789437e+03 -7.60302543e+03 -7.59184990e+03 -7.58067436e+03 -7.56949883e+03 
        </DataArray>
      </PointData>
    </Piece>
    <Piece NumberOfPoints="16" NumberOfCells="9">
      <Points>
        <DataArray type="Float64" NumberOfComponents="3" format="ascii">
          2.50000000e+00 8.00000000e+00 0.00000000e+00 
3.33333325e+00 8.00000000e+00 0.00000000e+00 
4.16666651e+00 8.00000000e+00 0.00000000e+00 
5.00000000e+00 8.00000000e+00 0.00000000e+00 
2.50000000e+00 8.33333302e+00 0.00000000e+00 
3.33333325e+00 8.33333302e+00 0.00000000e+00 
4.16666651e+00 8.33333302e+00 0.00000000e+00 
5.00000000e+00 8.33333302e+00 0.00000000e+00 
2.50000000e+00 8.66666698e+00 0.00000000e+00 
3.33333325e+00 8.66666698e+00 0.00000000e+00 
4.16666651e+00 8.66666698e+00 0.00000000e+00 
5.00000000e+00 8.66666698e+00 0.00000000e+00 
2.50000000e+00 9.00000000e+00 0.00000000e+00 
3.33333325e+00 9.00000000e+00 0.00000000e+00 
4.16666651e+00 9.00000000e+00 0.00000000e+00 
5.00000000e+00 9.00000000e+00 0.00000000e+00 

        </DataArray>
      </Points>
      <Cells>
        <DataArray type="Int32" Name="connectivity" format="ascii">
0 1 5 4
4 5 9 8
8 9 13 12
1 2 6 5
5 6 10 9
9 10 14 13
2 3 7 6
6 7 11 10
10 11 15 14

        </DataArray>
        <DataArray type="Int32" Name="offsets" format="ascii">
4 8 12 16 20 24 28 32 36 
        </DataArray>
        <DataArray type="UInt8" Name="types" format="ascii">
9 9 9 9 9 9 9 9 9 
        </DataArray>
      </Cells>
      <PointData>
        <DataArray type="Float64" Name="u">
          0.00000000e+00 -5.64378705e+00 -1.06721640e+01 -1.71101192e+01 0.00000000e+00 -4.19131065e+00 -8.04002026e+00 -1.36325418e+01 0.00000000e+00 -2.27877098e+00 -4.31186299e+00 -7.72857461e+00 0.00000000e+00 0.00000000e+00 0.00000000e+00 0.00000000e+00 
        </DataArray>
        <DataArray type="Float64" Name="v">
          0.00000000e+00 -4.84802835e+00 -4.75287626e+00 -3.67467347e+00 0.00000000e+00 -2.15936465e+00 -2.24320176e+00 -1.80734353e+00 0.00000000e+00 -7.01760309e-01 -7.75413443e-01 -6.71057128e-01 0.00000000e+00 0.00000000e+00 0.00000000e+00 0.00000000e+00 
        </DataArray>
        <DataArray type="Float64" Name="p">
          -7.61402831e+03 -7.59789054e+03 -7.58175277e+03 -7.56561499e+03 -7.62174973e+03 -7.60653263e+03 -7.59131552e+03 -7.57609842e+03 -7.62947115e+03 -7.61517472e+03 -7.60087828e+03 -7.58658184e+03 -7.63719258e+03 -7.62381680e+03 -7.61044103e+03 -7.59706526e+03 
        </DataArray>
      </PointData>
    </Piece>
    <Piece NumberOfPoints="16" NumberOfCells="9">
      <Points>
        <DataArray type="Float64" NumberOfComponents="3" format="ascii">
          5.00000000e+00 0.00000000e+00 0.00000000e+00 
5.83333349e+00 0.00000000e+00 0.00000000e+00 
6.66666651e+00 0.00000000e+00 0.00000000e+00 
7.50000000e+00 0.00000000e+00 0.00000000e+00 
5.00000000e+00 3.33333343e-01 0.00000000e+00 
5.83333349e+00 3.33333343e-01 0.00000000e+00 
6.66666651e+00 3.33333343e-01 0.00000000e+00 
7.50000000e+00 3.33333343e-01 0.00000000e+00 
5.00000000e+00 6.66666687e-01 0.00000000e+00 
5.83333349e+00 6.66666687e-01 0.00000000e+00 
6.66666651e+00 6.66666687e-01 0.00000000e+00 
7.50000000e+00 6.66666687e-01 0.00000000e+00 
5.00000000e+00 1.00000000e+00 0.00000000e+00 
5.83333349e+00 1.00000000e+00 0.00000000e+00 
6.66666651e+00 1.00000000e+00 0.00000000e+00 
7.50000000e+00 1.00000000e+00 0.00000000e+00 

        </DataArray>
      </Points>
      <Cells>
        <DataArray type="Int32" Name="connectivity" format="ascii">
0 1 5 4
4 5 9 8
8 9 13 12
1 2 6 5
5 6 10 9
9 10 14 13
2 3 7 6
6 7 11 10
10 11 15 14

        </DataArray>
        <DataArray type="Int32" Name="offsets" format="ascii">
4 8 12 16 20 24 28 32 36 
        </DataArray>
        <DataArray type="UInt8" Name="types" format="ascii">
9 9 9 9 9 9 9 9 9 
        </DataArray>
      </Cells>
      <PointData>
        <DataArray type="Float64" Name="u">