Variables = x, y, z, u, v, w, p, UplusV

Zone, N=162, E=256, F=FEBlock, ET=TRIANGLE
-0.644453 -0.71398 -0.45028 -0.740436 -0.506272 -0.423643 -0.202476 -0.17157 -0.278861 -0.651079 -0.728666 -0.530008 -0.454727 -0.244467 -0.36688 -0.673847 -0.756818 -0.631708 -0.525105 -0.413186 -0.74445 0.12577 0.0192599 0.152338 0.395636 0.378526 0.22621 -0.153644 0.0190484 0.158864 0.651698 0.447554 0.625174 0.787335 0.707672 0.827094 0.699652 0.688719 0.77777 0.785338 0.853465 0.866387 0.590672 0.62803 0.814123 0.861342 0.763486 0.558698 0.346927 0.0334994 0.087818 0.392856 0.317184 0.0153701 -0.23959 -0.514564 -0.180482 0.85795 0.62183 0.80679 0.862608 0.77647 0.589758 0.416324 0.87004 0.826086 0.867178 0.804371 -0.522494 -0.677186 -0.269054 0.017802 0.31885 0.578258 0.763161 0.846433 0.697812 0.694034 0.769044 0.775945 0.785492 0.740222 0.706346 0.6586 0.761426 0.794281 0.737347 0.692657 0.794054 0.825378 -0.810438 -0.697283 -0.753893 -0.564781 -0.587264 -0.479395 -0.302277 -0.338173 -0.0489634 -0.784381 -0.199553 -0.00403118 0.102436 0.290893 0.243728 0.500288 0.38514 0.540917 0.605612 -0.330104 -0.0466817 -0.0242551 0.240451 0.260999 0.511197 0.493953 0.278228 0.531208 0.529434 -0.814832 -0.746175 -0.57461 -0.556029 -0.835629 -0.761388 -0.831697 -0.736401 -0.554707 -0.581707 -0.816761 -0.732459 -0.809445 -0.81834 -0.760371 -0.837305 -0.639744 -0.784604 -0.852963 -0.30095 -0.011279 -0.0321405 -0.308341 -0.326669 -0.106482 -0.382158 0.265198 0.472845 0.208544 -0.799902 -0.790051 -0.777191 -0.796405 -0.784788 -0.819058 -0.794419 -0.599344 -0.766679 -0.834071 -0.0616825 -0.347061 0.49971 0.243576 
0.380083 0.688585 0.542481 0.14872 -0.0057687 0.241027 0.268099 -0.0854378 -0.298616 -0.199069 -0.423725 -0.526807 -0.321668 -0.557693 -0.691179 -0.668272 -0.78808 -0.790525 -0.718819 -0.768583 -0.841151 -0.00498981 -0.485766 -0.316478 -0.331382 -0.592065 -0.698404 -0.730234 -0.683755 -0.763558 -0.562851 -0.768476 -0.743899 -0.758442 -0.819372 -0.814053 -0.818582 -0.723685 -0.782131 0.665485 0.735039 0.575221 0.74026 0.522787 0.480511 0.340045 0.226752 0.288063 0.667684 0.766733 0.542471 0.464257 0.21832 0.318699 0.697814 0.788357 0.499235 0.0510362 -0.0232175 -0.0841197 -0.249483 -0.3616 -0.295148 -0.0966021 -0.521318 -0.62232 -0.721496 -0.658764 0.866426 0.833361 0.834617 0.841167 0.801753 0.811432 0.783321 0.793948 0.645946 0.815204 0.782361 0.61415 0.851046 0.858686 0.115259 0.423656 0.373953 0.0750996 -0.467976 -0.175408 -0.215405 -0.485353 0.828784 0.861452 0.773043 0.790768 0.60817 0.8669 0.784269 0.605917 0.593612 0.791077 0.857718 0.773275 0.849241 0.77256 0.591686 0.612155 0.850659 0.786869 0.860366 0.352059 0.338663 0.0448461 0.334364 0.0372239 0.0586266 0.3575 -0.262111 -0.245448 -0.521193 0.69758 0.30561 0.349859 0.0528868 0.709347 0.575693 0.484103 -0.294534 -0.244654 -0.503152 0.198508 0.00229736 -0.106414 -0.389554 -0.543269 -0.610427 -0.668169 -0.720094 -0.725492 -0.235941 -0.250023 -0.507118 0.0589405 -0.494045 -0.671327 -0.694755 -0.523799 -0.700017 -0.723922 -0.779827 -0.83751 -0.626406 -0.387374 -0.115484 0.199066 0.464529 -0.760911 -0.782049 -0.771681 -0.776037 -0.780569 -0.802234 -0.812207 
-0.666667 -0.666667 -0.666667 -0.666667 -0.666667 -0.666667 -0.666667 -0.666667 -0.666667 -0.666667 -0.666667 -0.666667 -0.666667 -0.666667 -0.666667 -0.666667 -0.666667 -0.666667 -0.666667 -0.666667 -0.666667 -0.666667 -0.666667 -0.666667 -0.666667 -0.666667 -0.666667 -0.666667 -0.666667 -0.666667 -0.666667 -0.666667 -0.666667 -0.666667 -0.666667 -0.666667 0.666667 0.666667 0.666667 -0.666667 -0.666667 -0.666667 -0.666667 -0.666667 -0.666667 -0.666667 -0.666667 -0.666667 -0.666667 -0.666667 -0.666667 -0.666667 -0.666667 -0.666667 -0.666667 -0.666667 -0.666667 -0.666667 -0.666667 -0.666667 -0.666667 -0.666667 -0.666667 -0.666667 -0.666667 -0.666667 -0.666667 0.666667 -0.666667 -0.666667 -0.666667 -0.666667 -0.666667 -0.666667 -0.666667 -0.666667 0.666667 0.666667 0.666667 0.666667 0.666667 0.666667 0.666667 0.666667 0.666667 0.666667 0.666667 0.666667 0.666667 0.666667 0.666667 0.666667 0.666667 0.666667 0.666667 0.666667 0.666667 0.666667 0.666667 -0.666667 0.666667 0.666667 0.666667 0.666667 0.666667 0.666667 0.666667 0.666667 0.666667 0.666667 0.666667 0.666667 0.666667 0.666667 0.666667 0.666667 0.666667 0.666667 0.666667 -0.666667 0.666667 0.666667 0.666667 0.666667 0.666667 0.666667 0.666667 0.666667 0.666667 0.666667 0.666667 0.666667 0.666667 0.666667 0.666667 0.666667 0.666667 0.666667 0.666667 0.666667 0.666667 0.666667 0.666667 0.666667 0.666667 0.666667 0.666667 0.666667 -0.666667 -0.666667 -0.666667 -0.666667 -0.666667 -0.666667 -0.666667 0.666667 0.666667 0.666667 0.666667 0.666667 0.666667 0.666667 
0.5 0.5 0.5 0.5 0.5 0.5 0.5 0.5 0.5 0.5 0.5 0.5 0.5 0.5 0.5 0.5 0.5 0.5 0.5 0.5 0.5 0.5 0.5 0.5 0.5 0.5 0.5 0.5 0.5 0.5 0.5 0.5 0.5 0.5 0.5 0.5 0.5 0.5 0.5 0.5 0.5 0.5 0.5 0.5 0.5 0.5 0.5 0.5 0.5 0.5 0.5 0.5 0.5 0.5 0.5 0.5 0.5 0.5 0.5 0.5 0.5 0.5 0.5 0.5 0.5 0.5 0.5 0.5 0.5 0.5 0.5 0.5 0.5 0.5 0.5 0.5 0.5 0.5 0.5 0.5 0.5 0.5 0.5 0.5 0.5 0.5 0.5 0.5 0.5 0.5 0.5 0.5 0.5 0.5 0.5 0.5 0.5 0.5 0.5 0.5 0.5 0.5 0.5 0.5 0.5 0.5 0.5 0.5 0.5 0.5 0.5 0.5 0.5 0.5 0.5 0.5 0.5 0.5 0.5 0.5 0.5 0.5 0.5 0.5 0.5 0.5 0.5 0.5 0.5 0.5 0.5 0.5 0.5 0.5 0.5 0.5 0.5 0.5 0.5 0.5 0.5 0.5 0.5 0.5 0.5 0.5 0.5 0.5 0.5 0.5 0.5 0.5 0.5 0.5 0.5 0.5 0.5 0.5 0.5 0.5 0.5 0.5 
0 0 0 0 0 0 0 0 0 0 0 0 0 0 0 0 0 0 0 0 0 0 0 0 0 0 0 0 0 0 0 0 0 0 0 0 0 0 0 0 0 0 0 0 0 0 0 0 0 0 0 0 0 0 0 0 0 0 0 0 0 0 0 0 0 0 0 0 0 0 0 0 0 0 0 0 0 0 0 0 0 0 0 0 0 0 0 0 0 0 0 0 0 0 0 0 0 0 0 0 0 0 0 0 0 0 0 0 0 0 0 0 0 0 0 0 0 0 0 0 0 0 0 0 0 0 0 0 0 0 0 0 0 0 0 0 0 0 0 0 0 0 0 0 0 0 0 0 0 0 0 0 0 0 0 0 0 0 0 0 0 0 
0 0 0 0 0 0 0 0 0 0 0 0 0 0 0 0 0 0 0 0 0 0 0 0 0 0 0 0 0 0 0 0 0 0 0 0 0 0 0 0 0 0 0 0 0 0 0 0 0 0 0 0 0 0 0 0 0 0 0 0 0 0 0 0 0 0 0 0 0 0 0 0 0 0 0 0 0 0 0 0 0 0 0 0 0 0 0 0 0 0 0 0 0 0 0 0 0 0 0 0 0 0 0 0 0 0 0 0 0 0 0 0 0 0 0 0 0 0 0 0 0 0 0 0 0 0 0 0 0 0 0 0 0 0 0 0 0 0 0 0 0 0 0 0 0 0 0 0 0 0 0 0 0 0 0 0 0 0 0 0 0 0 
3.33333 3.33333 3 3.33333 3 3 2.33333 2.33333 2.33333 3.33333 3.33333 3 3 2.33333 2.33333 3.33333 3.33333 3 3 2.33333 3.33333 2 2 2 1.33333 1.33333 1.33333 2 2 1.33333 1 1 1 0.333333 0.333333 0 0.666667 0.666667 0 0.333333 0 0 1 1 0.333333 0 0.333333 1 1.33333 2 2 1.33333 1.33333 2 2.33333 3 2.33333 0 1 0.333333 0 0.333333 1 1.33333 0 0.333333 0 7.40149e-16 3 3.33333 2.33333 2 1.33333 1 0.333333 0 0.666667 0.666667 8.88178e-16 8.88178e-16 5.92119e-16 0.666667 0.666667 0.666667 5.92119e-16 5.92119e-16 0.666667 0.666667 1.4803e-16 1.4803e-16 4 3.66667 3.66667 3 3 3 2.66667 2.66667 2 4 2.66667 2 2 1.66667 1.66667 1 1.66667 1 1 2.66667 2 2 1.66667 1.66667 1 1 1.66667 1 1 4 3.66667 3 3 4 3.33333 4 3.66667 3 3 4 3.33333 4 4 3.33333 4 3 3.66667 4 2.66667 2 2 2.33333 2.33333 2 2.66667 1.33333 1 1.66667 4 4 4 4 4 4 4 3 3.66667 4 2 2.66667 1 1.66667 
0.5 0.5 0.5 0.5 0.5 0.5 0.5 0.5 0.5 0.5 0.5 0.5 0.5 0.5 0.5 0.5 0.5 0.5 0.5 0.5 0.5 0.5 0.5 0.5 0.5 0.5 0.5 0.5 0.5 0.5 0.5 0.5 0.5 0.5 0.5 0.5 0.5 0.5 0.5 0.5 0.5 0.5 0.5 0.5 0.5 0.5 0.5 0.5 0.5 0.5 0.5 0.5 0.5 0.5 0.5 0.5 0.5 0.5 0.5 0.5 0.5 0.5 0.5 0.5 0.5 0.5 0.5 0.5 0.5 0.5 0.5 0.5 0.5 0.5 0.5 0.5 0.5 0.5 0.5 0.5 0.5 0.5 0.5 0.5 0.5 0.5 0.5 0.5 0.5 0.5 0.5 0.5 0.5 0.5 0.5 0.5 0.5 0.5 0.5 0.5 0.5 0.5 0.5 0.5 0.5 0.5 0.5 0.5 0.5 0.5 0.5 0.5 0.5 0.5 0.5 0.5 0.5 0.5 0.5 0.5 0.5 0.5 0.5 0.5 0.5 0.5 0.5 0.5 0.5 0.5 0.5 0.5 0.5 0.5 0.5 0.5 0.5 0.5 0.5 0.5 0.5 0.5 0.5 0.5 0.5 0.5 0.5 0.5 0.5 0.5 0.5 0.5 0.5 0.5 0.5 0.5 0.5 0.5 0.5 0.5 0.5 0.5 
1 2 3 4 1 5 1 5 6 6 1 3 3 6 7 6 7 8 6 8 5 9 5 8 10 4 5 11 10 12 10 12 13 13 10 5 5 13 9 13 9 14 13 14 12 15 12 14 16 11 12 17 16 18 16 18 19 19 16 12 12 19 15 19 15 20 19 20 18 21 17 18 8 7 22 9 8 23 8 23 24 24 8 22 22 24 25 24 25 26 24 26 23 27 23 26 14 9 23 15 14 28 14 28 29 29 14 23 23 29 27 29 27 30 29 30 28 20 15 28 26 25 31 27 26 32 26 32 33 33 26 31 31 33 34 33 34 35 33 35 32 30 27 32 35 34 36 37 38 39 40 41 42 43 40 44 40 44 45 45 40 42 42 45 46 45 46 47 45 47 44 48 44 47 49 43 44 50 49 51 49 51 52 52 49 44 44 52 48 52 48 53 52 53 51 54 51 53 55 50 51 56 55 3 55 3 57 57 55 51 51 57 54 57 54 7 57 7 3 2 56 3 47 46 58 48 47 59 47 59 60 60 47 58 58 60 61 60 61 62 60 62 59 63 59 62 53 48 59 54 53 22 53 22 64 64 53 59 59 64 63 64 63 25 64 25 22 7 54 22 62 61 65 63 62 31 62 31 66 66 62 65 65 66 67 66 67 34 66 34 31 25 63 31 34 67 36 38 68 39 69 56 70 56 70 2 71 55 56 71 69 56 72 50 71 50 71 55 73 49 50 73 72 50 74 43 73 43 73 49 75 40 43 75 74 43 76 41 75 41 75 40 77 78 79 77 80 79 81 79 82 79 82 78 83 84 85 83 86 85 80 85 77 85 77 84 87 88 89 87 90 89 86 89 83 89 83 88 90 68 87 68 87 38 91 92 93 93 94 95 96 94 92 94 92 93 94 97 96 95 94 98 94 98 97 97 99 98 100 70 2 96 101 97 97 102 99 103 102 101 102 101 97 102 104 103 99 102 105 102 105 104 104 106 105 103 107 104 104 108 106 109 108 107 108 107 104 108 78 109 106 108 77 108 77 78 109 82 78 95 98 110 110 111 112 99 111 98 111 98 110 111 113 99 112 111 114 111 114 113 113 115 114 99 105 113 113 116 115 106 116 105 116 105 113 116 84 106 115 116 83 116 83 84 106 77 84 112 114 117 117 118 119 115 118 114 118 114 117 118 88 115 119 118 87 118 87 88 115 83 88 119 87 38 100 120 2 121 122 123 124 93 125 93 125 95 124 126 125 122 125 121 125 121 126 122 95 125 91 124 93 127 128 129 130 121 131 121 131 123 130 132 131 128 131 127 131 127 132 128 123 131 126 130 121 133 127 134 127 134 129 133 135 134 136 134 137 134 137 135 136 129 134 132 133 127 135 138 137 139 140 141 122 110 142 110 142 112 122 123 142 140 142 139 142 139 123 140 112 142 95 122 110 128 139 143 139 143 141 128 129 143 144 143 145 143 145 129 144 141 143 123 128 139 129 136 145 140 117 146 117 146 119 140 141 146 147 146 148 146 148 141 147 119 146 112 140 117 141 144 148 119 147 38 149 17 150 17 150 21 151 16 17 151 149 17 152 11 151 11 151 16 153 10 11 153 152 11 154 4 153 4 153 10 155 1 4 155 154 4 120 2 155 2 155 1 156 157 137 156 136 137 138 137 158 137 158 157 159 160 145 159 144 145 136 145 156 145 156 160 161 162 148 161 147 148 144 148 159 148 159 162 147 38 161 38 161 37 
